
     Program PWSCF v.6.0 (svn rev. 13079) starts on 23Jul2018 at 15:28:35 

     This program is part of the open-source Quantum ESPRESSO suite
     for quantum simulation of materials; please cite
         "P. Giannozzi et al., J. Phys.:Condens. Matter 21 395502 (2009);
          URL http://www.quantum-espresso.org", 
     in publications or presentations arising from this work. More details at
     http://www.quantum-espresso.org/quote

     Parallel version (MPI), running on    12 processors
     R & G space division:  proc/nbgrp/npool/nimage =      12
     Reading input from glycine_alpha.in

     Current dimensions of program PWSCF are:
     Max number of different atomic species (ntypx) = 10
     Max number of k-points (npk) =  40000
     Max angular momentum in pseudopotentials (lmaxx) =  3
               file H.b86bpbe.UPF: wavefunction(s)  1S renormalized
               file C.b86bpbe.UPF: wavefunction(s)  2P renormalized
               file N.b86bpbe.UPF: wavefunction(s)  2P renormalized
               file O.b86bpbe.UPF: wavefunction(s)  2P renormalized

     Subspace diagonalization in iterative solution of the eigenvalue problem:
     one sub-group per band group will be used
     scalapack distributed-memory algorithm (size of sub-group:  2*  2 procs)

 
     Parallelization info
     --------------------
     sticks:   dense  smooth     PW     G-vecs:    dense   smooth      PW
     Min         711     284     83                32228     8155    1295
     Max         712     285     84                32229     8157    1296
     Sum        8535    3415   1001               386741    97869   15551
 


     bravais-lattice index     =            0
     lattice parameter (alat)  =       9.6138  a.u.
     unit-cell volume          =    2048.2112 (a.u.)^3
     number of atoms/cell      =           40
     number of atomic types    =            4
     number of electrons       =       120.00
     number of Kohn-Sham states=           60
     kinetic-energy cutoff     =      50.0000  Ry
     charge density cutoff     =     500.0000  Ry
     convergence threshold     =      1.0E-08
     mixing beta               =       0.5000
     number of iterations used =            8  plain     mixing
     Exchange-correlation      =  SLA  PW   B86B PBC ( 1  4 22  4 0 0)
     nstep                     =          500


     celldm(1)=   9.613793  celldm(2)=   0.000000  celldm(3)=   0.000000
     celldm(4)=   0.000000  celldm(5)=   0.000000  celldm(6)=   0.000000

     crystal axes: (cart. coord. in units of alat)
               a(1) = (   1.000000   0.000000   0.000000 )  
               a(2) = (   0.000000   2.315859   0.000000 )  
               a(3) = (  -0.403221   0.000000   0.995356 )  

     reciprocal axes: (cart. coord. in units 2 pi/alat)
               b(1) = (  1.000000  0.000000  0.405103 )  
               b(2) = (  0.000000  0.431805  0.000000 )  
               b(3) = (  0.000000  0.000000  1.004666 )  


     PseudoPot. # 1 for  H read from file:
     /home/jmcki003/espresso-5.2.1/pseudo/H.b86bpbe.UPF
     MD5 check sum: a05c38eace8e4bf5ff015d364fdf499b
     Pseudo is Projector augmented-wave, Zval =  1.0
     Generated using "atomic" code by A. Dal Corso  v.5.0.2 svn rev. 10467M
     Shape of augmentation charge: PSQ
     Using radial grid of  929 points,  2 beta functions with: 
                l(1) =   0
                l(2) =   0
     Q(r) pseudized with 0 coefficients 


     PseudoPot. # 2 for  C read from file:
     /home/jmcki003/espresso-5.2.1/pseudo/C.b86bpbe.UPF
     MD5 check sum: d23c832541b58f97580b3287d177e92c
     Pseudo is Projector augmented-wave + core cor, Zval =  4.0
     Generated using "atomic" code by A. Dal Corso  v.5.0.2 svn rev. 10467M
     Shape of augmentation charge: BESSEL
     Using radial grid of 1073 points,  4 beta functions with: 
                l(1) =   0
                l(2) =   0
                l(3) =   1
                l(4) =   1
     Q(r) pseudized with 0 coefficients 


     PseudoPot. # 3 for  N read from file:
     /home/jmcki003/espresso-5.2.1/pseudo/N.b86bpbe.UPF
     MD5 check sum: af778723f421ce17622347cbf03a6d58
     Pseudo is Projector augmented-wave + core cor, Zval =  5.0
     Generated using "atomic" code by A. Dal Corso  v.5.0.2 svn rev. 10467M
     Shape of augmentation charge: PSQ
     Using radial grid of 1085 points,  4 beta functions with: 
                l(1) =   0
                l(2) =   0
                l(3) =   1
                l(4) =   1
     Q(r) pseudized with 0 coefficients 


     PseudoPot. # 4 for  O read from file:
     /home/jmcki003/espresso-5.2.1/pseudo/O.b86bpbe.UPF
     MD5 check sum: e5d0ebeb85377a04d0834d2ed76ab915
     Pseudo is Projector augmented-wave + core cor, Zval =  6.0
     Generated using "atomic" code by A. Dal Corso  v.5.0.2 svn rev. 10467M
     Shape of augmentation charge: BESSEL
     Using radial grid of 1095 points,  4 beta functions with: 
                l(1) =   0
                l(2) =   0
                l(3) =   1
                l(4) =   1
     Q(r) pseudized with 0 coefficients 


     atomic species   valence    mass     pseudopotential
        H              1.00     1.00800      H( 1.00)
        C              4.00    12.01000      C( 1.00)
        N              5.00    14.00700      N( 1.00)
        O              6.00    16.00000      O( 1.00)

      2 Sym. Ops., with inversion, found
          (note:  2 additional sym.ops. were found but ignored
           their fractional translations are incommensurate with FFT grid)

                                    s                        frac. trans.

      isym =  1     identity                                     

 cryst.   s( 1) = (     1          0          0      )
                  (     0          1          0      )
                  (     0          0          1      )

 cart.    s( 1) = (  1.0000000  0.0000000  0.0000000 )
                  (  0.0000000  1.0000000  0.0000000 )
                  (  0.0000000  0.0000000  1.0000000 )


      isym =  2     inversion                                    

 cryst.   s( 2) = (    -1          0          0      )
                  (     0         -1          0      )
                  (     0          0         -1      )

 cart.    s( 2) = ( -1.0000000  0.0000000 -0.0000000 )
                  (  0.0000000 -1.0000000  0.0000000 )
                  (  0.0000000  0.0000000 -1.0000000 )


   Cartesian axes

     site n.     atom                  positions (alat units)
         1           C   tau(   1) = (   0.2555494   0.2896445   0.4321636  )
         2           C   tau(   2) = (   0.1542137   0.3377912   0.7107737  )
         3           H   tau(   3) = (   0.1284227   0.5189840   0.7345727  )
         4           H   tau(   4) = (   0.2850844   0.2619236   0.8390850  )
         5           N   tau(   5) = (  -0.1012390   0.2047914   0.7561022  )
         6           H   tau(   6) = (  -0.0839644   0.0426118   0.7305912  )
         7           H   tau(   7) = (  -0.2310939   0.2867033   0.6469813  )
         8           H   tau(   8) = (  -0.1614474   0.2244067   0.9416067  )
         9           O   tau(   9) = (   0.4969923   0.3296162   0.3917223  )
        10           O   tau(  10) = (   0.0913673   0.2170423   0.2622365  )
        11           C   tau(  11) = (  -0.3603813   1.4475739   1.0608702  )
        12           C   tau(  12) = (  -0.2590457   1.4957206   0.7822602  )
        13           H   tau(  13) = (  -0.2332546   1.6769133   0.7584612  )
        14           H   tau(  14) = (  -0.3899164   1.4198530   0.6539488  )
        15           N   tau(  15) = (  -0.0035930   1.3627208   0.7369316  )
        16           H   tau(  16) = (  -0.0208675   1.2005412   0.7624426  )
        17           H   tau(  17) = (   0.1262619   1.4446327   0.8460525  )
        18           H   tau(  18) = (   0.0566154   1.3823361   0.5514272  )
        19           O   tau(  19) = (  -0.6018242   1.4875456   1.1013115  )
        20           O   tau(  20) = (  -0.1961993   1.3749717   1.2307974  )
        21           C   tau(  21) = (   0.3412293   2.0262143   0.5631923  )
        22           C   tau(  22) = (   0.4425650   1.9780676   0.2845822  )
        23           H   tau(  23) = (   0.4683560   1.7968748   0.2607832  )
        24           H   tau(  24) = (   0.3116943   2.0539352   0.1562709  )
        25           N   tau(  25) = (   0.6980177   2.1110674   0.2392537  )
        26           H   tau(  26) = (   0.6807431   2.2732470   0.2647647  )
        27           H   tau(  27) = (   0.8278725   2.0291555   0.3483746  )
        28           H   tau(  28) = (   0.7582260   2.0914521   0.0537492  )
        29           O   tau(  29) = (   0.0997864   1.9862426   0.6036336  )
        30           O   tau(  30) = (   0.5054114   2.0988165   0.7331194  )
        31           C   tau(  31) = (   0.9571600   0.8682849  -0.0655143  )
        32           C   tau(  32) = (   0.8558243   0.8201382   0.2130957  )
        33           H   tau(  33) = (   0.8300333   0.6389454   0.2368947  )
        34           H   tau(  34) = (   0.9866951   0.8960058   0.3414071  )
        35           N   tau(  35) = (   0.6003717   0.9531380   0.2584243  )
        36           H   tau(  36) = (   0.6176462   1.1153176   0.2329133  )
        37           H   tau(  37) = (   0.4705168   0.8712261   0.1493034  )
        38           H   tau(  38) = (   0.5401633   0.9335227   0.4439287  )
        39           O   tau(  39) = (   1.1986029   0.8283132  -0.1059556  )
        40           O   tau(  40) = (   0.7929780   0.9408871  -0.2354415  )

   Crystallographic axes

     site n.     atom                  positions (cryst. coord.)
         1           C   tau(   1) = (  0.4306200  0.1250700  0.4341800  )
         2           C   tau(   2) = (  0.4421500  0.1458600  0.7140900  )
         3           H   tau(   3) = (  0.4260000  0.2241000  0.7380000  )
         4           H   tau(   4) = (  0.6250000  0.1131000  0.8430000  )
         5           N   tau(   5) = (  0.2050600  0.0884300  0.7596300  )
         6           H   tau(   6) = (  0.2120000  0.0184000  0.7340000  )
         7           H   tau(   7) = (  0.0310000  0.1238000  0.6500000  )
         8           H   tau(   8) = (  0.2200000  0.0969000  0.9460000  )
         9           O   tau(   9) = (  0.6556800  0.1423300  0.3935500  )
        10           O   tau(  10) = (  0.1976000  0.0937200  0.2634600  )
        11           C   tau(  11) = (  0.0693800  0.6250700  1.0658200  )
        12           C   tau(  12) = (  0.0578500  0.6458600  0.7859100  )
        13           H   tau(  13) = (  0.0740000  0.7241000  0.7620000  )
        14           H   tau(  14) = ( -0.1250000  0.6131000  0.6570000  )
        15           N   tau(  15) = (  0.2949400  0.5884300  0.7403700  )
        16           H   tau(  16) = (  0.2880000  0.5184000  0.7660000  )
        17           H   tau(  17) = (  0.4690000  0.6238000  0.8500000  )
        18           H   tau(  18) = (  0.2800000  0.5969000  0.5540000  )
        19           O   tau(  19) = ( -0.1556800  0.6423300  1.1064500  )
        20           O   tau(  20) = (  0.3024000  0.5937200  1.2365400  )
        21           C   tau(  21) = (  0.5693800  0.8749300  0.5658200  )
        22           C   tau(  22) = (  0.5578500  0.8541400  0.2859100  )
        23           H   tau(  23) = (  0.5740000  0.7759000  0.2620000  )
        24           H   tau(  24) = (  0.3750000  0.8869000  0.1570000  )
        25           N   tau(  25) = (  0.7949400  0.9115700  0.2403700  )
        26           H   tau(  26) = (  0.7880000  0.9816000  0.2660000  )
        27           H   tau(  27) = (  0.9690000  0.8762000  0.3500000  )
        28           H   tau(  28) = (  0.7800000  0.9031000  0.0540000  )
        29           O   tau(  29) = (  0.3443200  0.8576700  0.6064500  )
        30           O   tau(  30) = (  0.8024000  0.9062800  0.7365400  )
        31           C   tau(  31) = (  0.9306200  0.3749300 -0.0658200  )
        32           C   tau(  32) = (  0.9421500  0.3541400  0.2140900  )
        33           H   tau(  33) = (  0.9260000  0.2759000  0.2380000  )
        34           H   tau(  34) = (  1.1250000  0.3869000  0.3430000  )
        35           N   tau(  35) = (  0.7050600  0.4115700  0.2596300  )
        36           H   tau(  36) = (  0.7120000  0.4816000  0.2340000  )
        37           H   tau(  37) = (  0.5310000  0.3762000  0.1500000  )
        38           H   tau(  38) = (  0.7200000  0.4031000  0.4460000  )
        39           O   tau(  39) = (  1.1556800  0.3576700 -0.1064500  )
        40           O   tau(  40) = (  0.6976000  0.4062800 -0.2365400  )

     number of k points=    13
                       cart. coord. in units 2pi/alat
        k(    1) = (   0.1000000  -0.2159026   0.1409768), wk =   0.1600000
        k(    2) = (   0.1000000  -0.2159026   0.3419100), wk =   0.1600000
        k(    3) = (   0.1000000  -0.2159026  -0.4618226), wk =   0.1600000
        k(    4) = (   0.1000000  -0.2159026  -0.2608895), wk =   0.1600000
        k(    5) = (   0.1000000  -0.2159026  -0.0599563), wk =   0.1600000
        k(    6) = (   0.3000000  -0.2159026   0.2219974), wk =   0.1600000
        k(    7) = (   0.3000000  -0.2159026   0.4229305), wk =   0.1600000
        k(    8) = (   0.3000000  -0.2159026  -0.3808021), wk =   0.1600000
        k(    9) = (   0.3000000  -0.2159026  -0.1798689), wk =   0.1600000
        k(   10) = (   0.3000000  -0.2159026   0.0210642), wk =   0.1600000
        k(   11) = (  -0.5000000  -0.2159026  -0.1020847), wk =   0.1600000
        k(   12) = (  -0.5000000  -0.2159026   0.0988484), wk =   0.1600000
        k(   13) = (  -0.5000000  -0.2159026  -0.7048842), wk =   0.0800000

                       cryst. coord.
        k(    1) = (   0.1000000  -0.5000000   0.1000000), wk =   0.1600000
        k(    2) = (   0.1000000  -0.5000000   0.3000000), wk =   0.1600000
        k(    3) = (   0.1000000  -0.5000000  -0.5000000), wk =   0.1600000
        k(    4) = (   0.1000000  -0.5000000  -0.3000000), wk =   0.1600000
        k(    5) = (   0.1000000  -0.5000000  -0.1000000), wk =   0.1600000
        k(    6) = (   0.3000000  -0.5000000   0.1000000), wk =   0.1600000
        k(    7) = (   0.3000000  -0.5000000   0.3000000), wk =   0.1600000
        k(    8) = (   0.3000000  -0.5000000  -0.5000000), wk =   0.1600000
        k(    9) = (   0.3000000  -0.5000000  -0.3000000), wk =   0.1600000
        k(   10) = (   0.3000000  -0.5000000  -0.1000000), wk =   0.1600000
        k(   11) = (  -0.5000000  -0.5000000   0.1000000), wk =   0.1600000
        k(   12) = (  -0.5000000  -0.5000000   0.3000000), wk =   0.1600000
        k(   13) = (  -0.5000000  -0.5000000  -0.5000000), wk =   0.0800000

     Dense  grid:   386741 G-vectors     FFT dimensions: (  72, 160,  75)

     Smooth grid:    97869 G-vectors     FFT dimensions: (  45, 108,  48)

     Estimated max dynamical RAM per process >      44.16Mb

     Estimated total allocated dynamical RAM >     529.96Mb

     Initial potential from superposition of free atoms

     starting charge  119.99944, renormalised to  120.00000
     Starting wfc are  100 randomized atomic wfcs
     Checking if some PAW data can be deallocated... 
       node    0, deallocated PAW data for type:  3
       node    0, deallocated PAW data for type:  4
       node    1, deallocated PAW data for type:  2
       node    1, deallocated PAW data for type:  4
       node    2, deallocated PAW data for type:  1
       node    2, deallocated PAW data for type:  3
       node    3, deallocated PAW data for type:  2
       node    3, deallocated PAW data for type:  4
       node    4, deallocated PAW data for type:  2
       node    4, deallocated PAW data for type:  3
       node    5, deallocated PAW data for type:  1
       node    5, deallocated PAW data for type:  3
       node    6, deallocated PAW data for type:  2
       node    6, deallocated PAW data for type:  4
       node    7, deallocated PAW data for type:  2
       node    7, deallocated PAW data for type:  3
       node    7, deallocated PAW data for type:  4
       node    8, deallocated PAW data for type:  1
       node    8, deallocated PAW data for type:  3
       node    9, deallocated PAW data for type:  3
       node    9, deallocated PAW data for type:  4
       node   10, deallocated PAW data for type:  2
       node   10, deallocated PAW data for type:  4
       node   11, deallocated PAW data for type:  2
       node   11, deallocated PAW data for type:  3

     total cpu time spent up to now is        6.1 secs

     Self-consistent Calculation

     iteration #  1     ecut=    50.00 Ry     beta=0.50
     Davidson diagonalization with overlap
     ethr =  1.00E-02,  avg # of iterations =  3.0

     total cpu time spent up to now is       14.4 secs

     total energy              =    -618.08917456 Ry
     Harris-Foulkes estimate   =    -620.80783279 Ry
     estimated scf accuracy    <       5.08618334 Ry

     iteration #  2     ecut=    50.00 Ry     beta=0.50
     Davidson diagonalization with overlap
     ethr =  4.24E-03,  avg # of iterations =  4.0

     total cpu time spent up to now is       21.9 secs

     total energy              =    -618.93131267 Ry
     Harris-Foulkes estimate   =    -619.19859611 Ry
     estimated scf accuracy    <       0.60712731 Ry

     iteration #  3     ecut=    50.00 Ry     beta=0.50
     Davidson diagonalization with overlap
     ethr =  5.06E-04,  avg # of iterations =  4.0

     total cpu time spent up to now is       29.5 secs

     total energy              =    -619.09291464 Ry
     Harris-Foulkes estimate   =    -619.13416222 Ry
     estimated scf accuracy    <       0.11572576 Ry

     iteration #  4     ecut=    50.00 Ry     beta=0.50
     Davidson diagonalization with overlap
     ethr =  9.64E-05,  avg # of iterations =  2.7

     total cpu time spent up to now is       35.8 secs

     total energy              =    -619.09992126 Ry
     Harris-Foulkes estimate   =    -619.10431728 Ry
     estimated scf accuracy    <       0.01788452 Ry

     iteration #  5     ecut=    50.00 Ry     beta=0.50
     Davidson diagonalization with overlap
     ethr =  1.49E-05,  avg # of iterations =  4.0

     total cpu time spent up to now is       44.3 secs

     total energy              =    -619.10480976 Ry
     Harris-Foulkes estimate   =    -619.10928721 Ry
     estimated scf accuracy    <       0.00888022 Ry

     iteration #  6     ecut=    50.00 Ry     beta=0.50
     Davidson diagonalization with overlap
     ethr =  7.40E-06,  avg # of iterations =  3.4

     total cpu time spent up to now is       50.8 secs

     total energy              =    -619.10550910 Ry
     Harris-Foulkes estimate   =    -619.10595003 Ry
     estimated scf accuracy    <       0.00074864 Ry

     iteration #  7     ecut=    50.00 Ry     beta=0.50
     Davidson diagonalization with overlap
     ethr =  6.24E-07,  avg # of iterations =  4.0

     total cpu time spent up to now is       60.0 secs

     total energy              =    -619.10646859 Ry
     Harris-Foulkes estimate   =    -619.10691362 Ry
     estimated scf accuracy    <       0.00142733 Ry

     iteration #  8     ecut=    50.00 Ry     beta=0.50
     Davidson diagonalization with overlap
     ethr =  6.24E-07,  avg # of iterations =  2.0

     total cpu time spent up to now is       65.8 secs

     total energy              =    -619.10611505 Ry
     Harris-Foulkes estimate   =    -619.10649900 Ry
     estimated scf accuracy    <       0.00064972 Ry

     iteration #  9     ecut=    50.00 Ry     beta=0.50
     Davidson diagonalization with overlap
     ethr =  5.41E-07,  avg # of iterations =  3.9

     total cpu time spent up to now is       74.3 secs

     total energy              =    -619.10646499 Ry
     Harris-Foulkes estimate   =    -619.10649783 Ry
     estimated scf accuracy    <       0.00016883 Ry

     iteration # 10     ecut=    50.00 Ry     beta=0.50
     Davidson diagonalization with overlap
     ethr =  1.41E-07,  avg # of iterations =  1.0

     total cpu time spent up to now is       79.8 secs

     total energy              =    -619.10640567 Ry
     Harris-Foulkes estimate   =    -619.10646779 Ry
     estimated scf accuracy    <       0.00011512 Ry

     iteration # 11     ecut=    50.00 Ry     beta=0.50
     Davidson diagonalization with overlap
     ethr =  9.59E-08,  avg # of iterations =  3.2

     total cpu time spent up to now is       87.3 secs

     total energy              =    -619.10644236 Ry
     Harris-Foulkes estimate   =    -619.10644665 Ry
     estimated scf accuracy    <       0.00000848 Ry

     iteration # 12     ecut=    50.00 Ry     beta=0.50
     Davidson diagonalization with overlap
     ethr =  7.06E-09,  avg # of iterations =  3.9

     total cpu time spent up to now is       94.6 secs

     total energy              =    -619.10644397 Ry
     Harris-Foulkes estimate   =    -619.10644412 Ry
     estimated scf accuracy    <       0.00000023 Ry

     iteration # 13     ecut=    50.00 Ry     beta=0.50
     Davidson diagonalization with overlap
     ethr =  1.96E-10,  avg # of iterations =  4.0

     total cpu time spent up to now is      104.1 secs

     total energy              =    -619.10644404 Ry
     Harris-Foulkes estimate   =    -619.10644433 Ry
     estimated scf accuracy    <       0.00000049 Ry

     iteration # 14     ecut=    50.00 Ry     beta=0.50
     Davidson diagonalization with overlap
     ethr =  1.96E-10,  avg # of iterations =  4.0

     total cpu time spent up to now is      113.0 secs

     total energy              =    -619.10644417 Ry
     Harris-Foulkes estimate   =    -619.10644419 Ry
     estimated scf accuracy    <       0.00000004 Ry

     iteration # 15     ecut=    50.00 Ry     beta=0.50
     Davidson diagonalization with overlap
     ethr =  3.02E-11,  avg # of iterations =  1.2

     total cpu time spent up to now is      118.5 secs

     total energy              =    -619.10644417 Ry
     Harris-Foulkes estimate   =    -619.10644418 Ry
     estimated scf accuracy    <       0.00000002 Ry

     iteration # 16     ecut=    50.00 Ry     beta=0.50
     Davidson diagonalization with overlap
     ethr =  1.36E-11,  avg # of iterations =  4.0

     total cpu time spent up to now is      127.3 secs

     End of self-consistent calculation

          k = 0.1000-0.2159 0.1410 ( 12238 PWs)   bands (ev):

   -19.3325 -19.3324 -19.1209 -19.1208 -17.9577 -17.9577 -17.8953 -17.8953
   -16.6870 -16.6870 -16.6456 -16.6455 -11.4605 -11.4605 -11.3962 -11.3962
    -8.0896  -8.0896  -7.9321  -7.9321  -7.3862  -7.3862  -7.1791  -7.1791
    -5.5364  -5.5364  -5.4362  -5.4362  -5.1793  -5.1793  -4.6952  -4.6952
    -4.3438  -4.3438  -4.1202  -4.1202  -3.3143  -3.3143  -3.1092  -3.1092
    -2.8196  -2.8196  -2.7089  -2.7089  -2.2668  -2.2668  -1.9705  -1.9705
     0.4336   0.4336   0.7743   0.7743   0.9336   0.9336   1.0304   1.0304
     1.3127   1.3127   1.3886   1.3886

     occupation numbers 
     1.0000   1.0000   1.0000   1.0000   1.0000   1.0000   1.0000   1.0000
     1.0000   1.0000   1.0000   1.0000   1.0000   1.0000   1.0000   1.0000
     1.0000   1.0000   1.0000   1.0000   1.0000   1.0000   1.0000   1.0000
     1.0000   1.0000   1.0000   1.0000   1.0000   1.0000   1.0000   1.0000
     1.0000   1.0000   1.0000   1.0000   1.0000   1.0000   1.0000   1.0000
     1.0000   1.0000   1.0000   1.0000   1.0000   1.0000   1.0000   1.0000
     1.0000   1.0000   1.0000   1.0000   1.0000   1.0000   1.0000   1.0000
     1.0000   1.0000   1.0000   1.0000

          k = 0.1000-0.2159 0.3419 ( 12208 PWs)   bands (ev):

   -19.2565 -19.2565 -19.0744 -19.0744 -18.0509 -18.0509 -17.9757 -17.9757
   -16.7061 -16.7061 -16.6543 -16.6543 -11.4417 -11.4417 -11.3398 -11.3398
    -8.0696  -8.0696  -7.8792  -7.8792  -7.0486  -7.0486  -6.9756  -6.9756
    -5.7435  -5.7435  -5.6238  -5.6238  -5.0143  -5.0143  -4.6206  -4.6206
    -4.4597  -4.4597  -4.1941  -4.1941  -3.4408  -3.4408  -3.3724  -3.3724
    -2.9199  -2.9199  -2.7672  -2.7672  -2.2707  -2.2707  -1.9715  -1.9715
     0.4053   0.4053   0.7711   0.7711   0.9221   0.9221   1.0148   1.0148
     1.3512   1.3512   1.3978   1.3978

     occupation numbers 
     1.0000   1.0000   1.0000   1.0000   1.0000   1.0000   1.0000   1.0000
     1.0000   1.0000   1.0000   1.0000   1.0000   1.0000   1.0000   1.0000
     1.0000   1.0000   1.0000   1.0000   1.0000   1.0000   1.0000   1.0000
     1.0000   1.0000   1.0000   1.0000   1.0000   1.0000   1.0000   1.0000
     1.0000   1.0000   1.0000   1.0000   1.0000   1.0000   1.0000   1.0000
     1.0000   1.0000   1.0000   1.0000   1.0000   1.0000   1.0000   1.0000
     1.0000   1.0000   1.0000   1.0000   1.0000   1.0000   1.0000   1.0000
     1.0000   1.0000   1.0000   1.0000

          k = 0.1000-0.2159-0.4618 ( 12206 PWs)   bands (ev):

   -19.2143 -19.2143 -19.0479 -19.0479 -18.0950 -18.0950 -18.0172 -18.0172
   -16.7261 -16.7261 -16.6641 -16.6641 -11.4232 -11.4232 -11.3081 -11.3081
    -8.0462  -8.0462  -7.8581  -7.8580  -6.7711  -6.7711  -6.6477  -6.6477
    -6.0688  -6.0688  -5.9039  -5.9039  -4.9634  -4.9634  -4.6417  -4.6417
    -4.4931  -4.4930  -4.1793  -4.1793  -3.5712  -3.5712  -3.4499  -3.4499
    -2.9215  -2.9215  -2.7642  -2.7642  -2.2457  -2.2457  -1.9864  -1.9864
     0.3941   0.3941   0.7682   0.7682   1.0218   1.0218   1.0634   1.0634
     1.2656   1.2656   1.3140   1.3140

     occupation numbers 
     1.0000   1.0000   1.0000   1.0000   1.0000   1.0000   1.0000   1.0000
     1.0000   1.0000   1.0000   1.0000   1.0000   1.0000   1.0000   1.0000
     1.0000   1.0000   1.0000   1.0000   1.0000   1.0000   1.0000   1.0000
     1.0000   1.0000   1.0000   1.0000   1.0000   1.0000   1.0000   1.0000
     1.0000   1.0000   1.0000   1.0000   1.0000   1.0000   1.0000   1.0000
     1.0000   1.0000   1.0000   1.0000   1.0000   1.0000   1.0000   1.0000
     1.0000   1.0000   1.0000   1.0000   1.0000   1.0000   1.0000   1.0000
     1.0000   1.0000   1.0000   1.0000

          k = 0.1000-0.2159-0.2609 ( 12252 PWs)   bands (ev):

   -19.2755 -19.2755 -19.0789 -19.0789 -18.0245 -18.0245 -17.9531 -17.9531
   -16.7221 -16.7220 -16.6621 -16.6621 -11.4276 -11.4276 -11.3424 -11.3424
    -8.0318  -8.0318  -7.9058  -7.9058  -7.0941  -7.0941  -6.8874  -6.8874
    -5.9431  -5.9431  -5.6825  -5.6825  -5.0055  -5.0055  -4.6433  -4.6433
    -4.4059  -4.4059  -4.1659  -4.1659  -3.4425  -3.4425  -3.3462  -3.3462
    -2.8393  -2.8393  -2.7224  -2.7224  -2.2222  -2.2222  -1.9996  -1.9996
     0.4063   0.4063   0.7645   0.7645   0.9295   0.9295   1.0090   1.0090
     1.3389   1.3389   1.4065   1.4065

     occupation numbers 
     1.0000   1.0000   1.0000   1.0000   1.0000   1.0000   1.0000   1.0000
     1.0000   1.0000   1.0000   1.0000   1.0000   1.0000   1.0000   1.0000
     1.0000   1.0000   1.0000   1.0000   1.0000   1.0000   1.0000   1.0000
     1.0000   1.0000   1.0000   1.0000   1.0000   1.0000   1.0000   1.0000
     1.0000   1.0000   1.0000   1.0000   1.0000   1.0000   1.0000   1.0000
     1.0000   1.0000   1.0000   1.0000   1.0000   1.0000   1.0000   1.0000
     1.0000   1.0000   1.0000   1.0000   1.0000   1.0000   1.0000   1.0000
     1.0000   1.0000   1.0000   1.0000

          k = 0.1000-0.2159-0.0600 ( 12256 PWs)   bands (ev):

   -19.3422 -19.3422 -19.1238 -19.1238 -17.9427 -17.9427 -17.8811 -17.8811
   -16.6976 -16.6976 -16.6503 -16.6503 -11.4503 -11.4503 -11.3990 -11.3990
    -8.0703  -8.0703  -7.9385  -7.9385  -7.4196  -7.4196  -7.1425  -7.1425
    -5.6764  -5.6764  -5.4693  -5.4693  -5.1370  -5.1370  -4.7085  -4.7085
    -4.3417  -4.3417  -4.0744  -4.0744  -3.2972  -3.2972  -3.1266  -3.1266
    -2.7605  -2.7605  -2.6793  -2.6793  -2.2303  -2.2303  -1.9889  -1.9889
     0.4308   0.4308   0.7692   0.7692   0.9210   0.9210   1.0218   1.0218
     1.3246   1.3246   1.3963   1.3963

     occupation numbers 
     1.0000   1.0000   1.0000   1.0000   1.0000   1.0000   1.0000   1.0000
     1.0000   1.0000   1.0000   1.0000   1.0000   1.0000   1.0000   1.0000
     1.0000   1.0000   1.0000   1.0000   1.0000   1.0000   1.0000   1.0000
     1.0000   1.0000   1.0000   1.0000   1.0000   1.0000   1.0000   1.0000
     1.0000   1.0000   1.0000   1.0000   1.0000   1.0000   1.0000   1.0000
     1.0000   1.0000   1.0000   1.0000   1.0000   1.0000   1.0000   1.0000
     1.0000   1.0000   1.0000   1.0000   1.0000   1.0000   1.0000   1.0000
     1.0000   1.0000   1.0000   1.0000

          k = 0.3000-0.2159 0.2220 ( 12214 PWs)   bands (ev):

   -19.2530 -19.2530 -19.0981 -19.0981 -18.0492 -18.0492 -17.9582 -17.9582
   -16.6574 -16.6574 -16.6538 -16.6537 -11.4888 -11.4888 -11.3987 -11.3987
    -8.0897  -8.0897  -7.9549  -7.9549  -7.3280  -7.3280  -7.2826  -7.2826
    -5.4939  -5.4939  -5.4382  -5.4382  -4.8565  -4.8565  -4.4553  -4.4553
    -4.2514  -4.2514  -4.0000  -4.0000  -3.4516  -3.4516  -3.2890  -3.2890
    -2.8974  -2.8974  -2.8122  -2.8122  -2.2705  -2.2705  -2.0277  -2.0277
     0.4150   0.4150   0.7682   0.7682   0.8679   0.8679   0.9607   0.9607
     1.3020   1.3020   1.3719   1.3719

     occupation numbers 
     1.0000   1.0000   1.0000   1.0000   1.0000   1.0000   1.0000   1.0000
     1.0000   1.0000   1.0000   1.0000   1.0000   1.0000   1.0000   1.0000
     1.0000   1.0000   1.0000   1.0000   1.0000   1.0000   1.0000   1.0000
     1.0000   1.0000   1.0000   1.0000   1.0000   1.0000   1.0000   1.0000
     1.0000   1.0000   1.0000   1.0000   1.0000   1.0000   1.0000   1.0000
     1.0000   1.0000   1.0000   1.0000   1.0000   1.0000   1.0000   1.0000
     1.0000   1.0000   1.0000   1.0000   1.0000   1.0000   1.0000   1.0000
     1.0000   1.0000   1.0000   1.0000

          k = 0.3000-0.2159 0.4229 ( 12248 PWs)   bands (ev):

   -19.1870 -19.1869 -19.0527 -19.0527 -18.1213 -18.1213 -18.0225 -18.0225
   -16.6916 -16.6916 -16.6726 -16.6726 -11.4589 -11.4589 -11.3401 -11.3401
    -8.0562  -8.0562  -7.9012  -7.9012  -7.1151  -7.1151  -6.9809  -6.9809
    -5.7187  -5.7187  -5.5633  -5.5633  -4.8633  -4.8633  -4.6239  -4.6239
    -4.3369  -4.3369  -4.0091  -4.0091  -3.5415  -3.5415  -3.3512  -3.3512
    -2.9893  -2.9893  -2.7704  -2.7703  -2.2839  -2.2839  -2.0233  -2.0233
     0.3583   0.3583   0.7401   0.7402   0.9108   0.9108   0.9716   0.9716
     1.3015   1.3015   1.3591   1.3591

     occupation numbers 
     1.0000   1.0000   1.0000   1.0000   1.0000   1.0000   1.0000   1.0000
     1.0000   1.0000   1.0000   1.0000   1.0000   1.0000   1.0000   1.0000
     1.0000   1.0000   1.0000   1.0000   1.0000   1.0000   1.0000   1.0000
     1.0000   1.0000   1.0000   1.0000   1.0000   1.0000   1.0000   1.0000
     1.0000   1.0000   1.0000   1.0000   1.0000   1.0000   1.0000   1.0000
     1.0000   1.0000   1.0000   1.0000   1.0000   1.0000   1.0000   1.0000
     1.0000   1.0000   1.0000   1.0000   1.0000   1.0000   1.0000   1.0000
     1.0000   1.0000   1.0000   1.0000

          k = 0.3000-0.2159-0.3808 ( 12230 PWs)   bands (ev):

   -19.1656 -19.1656 -19.0258 -19.0258 -18.1428 -18.1428 -18.0417 -18.0417
   -16.7255 -16.7255 -16.6909 -16.6909 -11.4317 -11.4317 -11.3062 -11.3062
    -8.0064  -8.0064  -7.9090  -7.9090  -6.8544  -6.8544  -6.6329  -6.6329
    -6.1109  -6.1109  -5.8457  -5.8457  -4.9444  -4.9444  -4.6263  -4.6263
    -4.3896  -4.3896  -4.0008  -4.0008  -3.5920  -3.5920  -3.4331  -3.4331
    -2.9434  -2.9434  -2.6665  -2.6665  -2.2532  -2.2532  -2.0314  -2.0314
     0.3553   0.3553   0.7441   0.7441   0.9837   0.9837   1.0590   1.0590
     1.1912   1.1912   1.2714   1.2714

     occupation numbers 
     1.0000   1.0000   1.0000   1.0000   1.0000   1.0000   1.0000   1.0000
     1.0000   1.0000   1.0000   1.0000   1.0000   1.0000   1.0000   1.0000
     1.0000   1.0000   1.0000   1.0000   1.0000   1.0000   1.0000   1.0000
     1.0000   1.0000   1.0000   1.0000   1.0000   1.0000   1.0000   1.0000
     1.0000   1.0000   1.0000   1.0000   1.0000   1.0000   1.0000   1.0000
     1.0000   1.0000   1.0000   1.0000   1.0000   1.0000   1.0000   1.0000
     1.0000   1.0000   1.0000   1.0000   1.0000   1.0000   1.0000   1.0000
     1.0000   1.0000   1.0000   1.0000

          k = 0.3000-0.2159-0.1799 ( 12208 PWs)   bands (ev):

   -19.2233 -19.2233 -19.0580 -19.0580 -18.0799 -18.0799 -17.9825 -17.9825
   -16.7170 -16.7169 -16.6831 -16.6831 -11.4416 -11.4416 -11.3409 -11.3409
    -8.0009  -8.0009  -7.9493  -7.9493  -7.1385  -7.1385  -6.9096  -6.9096
    -5.9518  -5.9518  -5.6549  -5.6549  -4.9068  -4.9068  -4.5296  -4.5296
    -4.3053  -4.3053  -3.9824  -3.9824  -3.5407  -3.5407  -3.4506  -3.4506
    -2.8848  -2.8848  -2.6181  -2.6181  -2.2067  -2.2067  -2.0524  -2.0524
     0.3666   0.3666   0.7507   0.7507   0.8627   0.8627   0.9327   0.9327
     1.3527   1.3527   1.3794   1.3794

     occupation numbers 
     1.0000   1.0000   1.0000   1.0000   1.0000   1.0000   1.0000   1.0000
     1.0000   1.0000   1.0000   1.0000   1.0000   1.0000   1.0000   1.0000
     1.0000   1.0000   1.0000   1.0000   1.0000   1.0000   1.0000   1.0000
     1.0000   1.0000   1.0000   1.0000   1.0000   1.0000   1.0000   1.0000
     1.0000   1.0000   1.0000   1.0000   1.0000   1.0000   1.0000   1.0000
     1.0000   1.0000   1.0000   1.0000   1.0000   1.0000   1.0000   1.0000
     1.0000   1.0000   1.0000   1.0000   1.0000   1.0000   1.0000   1.0000
     1.0000   1.0000   1.0000   1.0000

          k = 0.3000-0.2159 0.0211 ( 12262 PWs)   bands (ev):

   -19.2725 -19.2725 -19.1014 -19.1014 -18.0262 -18.0262 -17.9338 -17.9338
   -16.6766 -16.6766 -16.6570 -16.6570 -11.4779 -11.4779 -11.3990 -11.3990
    -8.0720  -8.0720  -7.9603  -7.9603  -7.3978  -7.3978  -7.2164  -7.2164
    -5.6453  -5.6453  -5.4527  -5.4527  -4.8710  -4.8710  -4.4507  -4.4506
    -4.2409  -4.2409  -3.9602  -3.9602  -3.4340  -3.4340  -3.3784  -3.3784
    -2.8286  -2.8286  -2.6839  -2.6839  -2.2216  -2.2216  -2.0479  -2.0479
     0.4069   0.4069   0.7490   0.7490   0.8710   0.8710   0.9156   0.9156
     1.3428   1.3428   1.3931   1.3931

     occupation numbers 
     1.0000   1.0000   1.0000   1.0000   1.0000   1.0000   1.0000   1.0000
     1.0000   1.0000   1.0000   1.0000   1.0000   1.0000   1.0000   1.0000
     1.0000   1.0000   1.0000   1.0000   1.0000   1.0000   1.0000   1.0000
     1.0000   1.0000   1.0000   1.0000   1.0000   1.0000   1.0000   1.0000
     1.0000   1.0000   1.0000   1.0000   1.0000   1.0000   1.0000   1.0000
     1.0000   1.0000   1.0000   1.0000   1.0000   1.0000   1.0000   1.0000
     1.0000   1.0000   1.0000   1.0000   1.0000   1.0000   1.0000   1.0000
     1.0000   1.0000   1.0000   1.0000

          k =-0.5000-0.2159-0.1021 ( 12224 PWs)   bands (ev):

   -19.2059 -19.2059 -19.0907 -19.0907 -18.1042 -18.1042 -17.9733 -17.9733
   -16.6705 -16.6705 -16.6429 -16.6429 -11.4979 -11.4979 -11.4017 -11.4017
    -8.0747  -8.0747  -7.9753  -7.9753  -7.3548  -7.3548  -7.2814  -7.2814
    -5.5109  -5.5109  -5.4337  -5.4337  -4.6311  -4.6311  -4.5877  -4.5877
    -3.9926  -3.9926  -3.8293  -3.8293  -3.5561  -3.5561  -3.4961  -3.4961
    -2.9083  -2.9083  -2.7752  -2.7752  -2.2427  -2.2427  -2.0950  -2.0950
     0.3970   0.3970   0.7555   0.7555   0.8253   0.8254   0.8962   0.8962
     1.3234   1.3234   1.3498   1.3498

     occupation numbers 
     1.0000   1.0000   1.0000   1.0000   1.0000   1.0000   1.0000   1.0000
     1.0000   1.0000   1.0000   1.0000   1.0000   1.0000   1.0000   1.0000
     1.0000   1.0000   1.0000   1.0000   1.0000   1.0000   1.0000   1.0000
     1.0000   1.0000   1.0000   1.0000   1.0000   1.0000   1.0000   1.0000
     1.0000   1.0000   1.0000   1.0000   1.0000   1.0000   1.0000   1.0000
     1.0000   1.0000   1.0000   1.0000   1.0000   1.0000   1.0000   1.0000
     1.0000   1.0000   1.0000   1.0000   1.0000   1.0000   1.0000   1.0000
     1.0000   1.0000   1.0000   1.0000

          k =-0.5000-0.2159 0.0988 ( 12256 PWs)   bands (ev):

   -19.1620 -19.1620 -19.0431 -19.0431 -18.1556 -18.1556 -18.0144 -18.0144
   -16.7065 -16.7065 -16.6815 -16.6815 -11.4606 -11.4606 -11.3402 -11.3402
    -8.0318  -8.0318  -7.9346  -7.9346  -7.1549  -7.1549  -6.9615  -6.9615
    -5.7806  -5.7806  -5.5814  -5.5813  -4.8157  -4.8157  -4.5932  -4.5932
    -4.2295  -4.2295  -3.8796  -3.8796  -3.5872  -3.5872  -3.5121  -3.5121
    -2.9155  -2.9155  -2.6442  -2.6442  -2.2520  -2.2520  -2.0668  -2.0668
     0.3256   0.3256   0.7341   0.7341   0.8378   0.8378   0.9169   0.9169
     1.3135   1.3135   1.3707   1.3707

     occupation numbers 
     1.0000   1.0000   1.0000   1.0000   1.0000   1.0000   1.0000   1.0000
     1.0000   1.0000   1.0000   1.0000   1.0000   1.0000   1.0000   1.0000
     1.0000   1.0000   1.0000   1.0000   1.0000   1.0000   1.0000   1.0000
     1.0000   1.0000   1.0000   1.0000   1.0000   1.0000   1.0000   1.0000
     1.0000   1.0000   1.0000   1.0000   1.0000   1.0000   1.0000   1.0000
     1.0000   1.0000   1.0000   1.0000   1.0000   1.0000   1.0000   1.0000
     1.0000   1.0000   1.0000   1.0000   1.0000   1.0000   1.0000   1.0000
     1.0000   1.0000   1.0000   1.0000

          k =-0.5000-0.2159-0.7049 ( 12256 PWs)   bands (ev):

   -19.1313 -19.1313 -19.0120 -19.0120 -18.1907 -18.1907 -18.0429 -18.0429
   -16.7297 -16.7297 -16.7021 -16.7021 -11.4392 -11.4392 -11.3046 -11.3046
    -7.9887  -7.9887  -7.9442  -7.9442  -6.8885  -6.8885  -6.6544  -6.6544
    -6.0611  -6.0611  -5.8153  -5.8153  -4.9446  -4.9446  -4.6022  -4.6022
    -4.3450  -4.3450  -3.8864  -3.8863  -3.6026  -3.6026  -3.5252  -3.5252
    -2.9197  -2.9197  -2.5833  -2.5833  -2.2589  -2.2589  -2.0450  -2.0450
     0.3267   0.3267   0.7456   0.7456   0.8744   0.8744   1.0314   1.0314
     1.1735   1.1735   1.3116   1.3116

     occupation numbers 
     1.0000   1.0000   1.0000   1.0000   1.0000   1.0000   1.0000   1.0000
     1.0000   1.0000   1.0000   1.0000   1.0000   1.0000   1.0000   1.0000
     1.0000   1.0000   1.0000   1.0000   1.0000   1.0000   1.0000   1.0000
     1.0000   1.0000   1.0000   1.0000   1.0000   1.0000   1.0000   1.0000
     1.0000   1.0000   1.0000   1.0000   1.0000   1.0000   1.0000   1.0000
     1.0000   1.0000   1.0000   1.0000   1.0000   1.0000   1.0000   1.0000
     1.0000   1.0000   1.0000   1.0000   1.0000   1.0000   1.0000   1.0000
     1.0000   1.0000   1.0000   1.0000

     highest occupied level (ev):     1.4065

* XDM dispersion
  a1 =     0.651200
  a2 (ang) =     1.463300
  a2 (bohr) =     2.765236
 
+ Volumes and moments
# All results in atomic units (Hartree,bohr)
# i        V             Vfree           M1             M2             M3
  1   3.266293E+01   3.872712E+01   3.630920E+00   4.841015E+01   8.878962E+02
  2   3.125152E+01   3.872712E+01   3.617884E+00   4.723607E+01   8.696124E+02
  3   7.809718E+00   1.032844E+01   1.365326E+00   1.279080E+01   2.520775E+02
  4   7.671921E+00   1.032844E+01   1.383011E+00   1.247463E+01   2.475402E+02
  5   2.402296E+01   2.988899E+01   3.578307E+00   3.552967E+01   5.007485E+02
  6   7.873138E+00   1.032844E+01   1.225215E+00   1.254156E+01   2.524190E+02
  7   7.890195E+00   1.032844E+01   1.285898E+00   1.277240E+01   2.540473E+02
  8   7.800979E+00   1.032844E+01   1.312128E+00   1.282662E+01   2.532608E+02
  9   2.154577E+01   2.369510E+01   4.555548E+00   3.317075E+01   3.192321E+02
 10   2.141979E+01   2.369510E+01   4.481540E+00   3.254421E+01   3.154471E+02
 11   3.266294E+01   3.872712E+01   3.630881E+00   4.841021E+01   8.878962E+02
 12   3.125153E+01   3.872712E+01   3.617872E+00   4.723610E+01   8.696140E+02
 13   7.809716E+00   1.032844E+01   1.365353E+00   1.279082E+01   2.520775E+02
 14   7.671921E+00   1.032844E+01   1.383023E+00   1.247460E+01   2.475402E+02
 15   2.402292E+01   2.988899E+01   3.578476E+00   3.552975E+01   5.007486E+02
 16   7.873140E+00   1.032844E+01   1.225213E+00   1.254161E+01   2.524199E+02
 17   7.890191E+00   1.032844E+01   1.285910E+00   1.277243E+01   2.540475E+02
 18   7.800973E+00   1.032844E+01   1.312152E+00   1.282662E+01   2.532600E+02
 19   2.154577E+01   2.369510E+01   4.555605E+00   3.317073E+01   3.192325E+02
 20   2.141979E+01   2.369510E+01   4.481570E+00   3.254428E+01   3.154473E+02
 21   3.266293E+01   3.872712E+01   3.630920E+00   4.841015E+01   8.878962E+02
 22   3.125152E+01   3.872712E+01   3.617884E+00   4.723607E+01   8.696124E+02
 23   7.809718E+00   1.032844E+01   1.365326E+00   1.279080E+01   2.520775E+02
 24   7.671921E+00   1.032844E+01   1.383011E+00   1.247463E+01   2.475402E+02
 25   2.402296E+01   2.988899E+01   3.578307E+00   3.552967E+01   5.007485E+02
 26   7.873138E+00   1.032844E+01   1.225215E+00   1.254156E+01   2.524190E+02
 27   7.890195E+00   1.032844E+01   1.285898E+00   1.277240E+01   2.540473E+02
 28   7.800979E+00   1.032844E+01   1.312128E+00   1.282662E+01   2.532608E+02
 29   2.154577E+01   2.369510E+01   4.555548E+00   3.317075E+01   3.192321E+02
 30   2.141979E+01   2.369510E+01   4.481540E+00   3.254421E+01   3.154471E+02
 31   3.266294E+01   3.872712E+01   3.630881E+00   4.841021E+01   8.878962E+02
 32   3.125153E+01   3.872712E+01   3.617872E+00   4.723610E+01   8.696140E+02
 33   7.809716E+00   1.032844E+01   1.365353E+00   1.279082E+01   2.520775E+02
 34   7.671921E+00   1.032844E+01   1.383023E+00   1.247460E+01   2.475402E+02
 35   2.402292E+01   2.988899E+01   3.578476E+00   3.552975E+01   5.007486E+02
 36   7.873140E+00   1.032844E+01   1.225213E+00   1.254161E+01   2.524199E+02
 37   7.890191E+00   1.032844E+01   1.285910E+00   1.277243E+01   2.540475E+02
 38   7.800973E+00   1.032844E+01   1.312152E+00   1.282662E+01   2.532600E+02
 39   2.154577E+01   2.369510E+01   4.555605E+00   3.317073E+01   3.192325E+02
 40   2.141979E+01   2.369510E+01   4.481570E+00   3.254428E+01   3.154473E+02
 
+ Dispersion coefficients
# All results in atomic units (Hartree,bohr).
# i   j      C6             C8             C10            Rc            Rvdw
  1   1   1.818594E+01   7.274059E+02   3.136624E+04   6.445146E+00   6.962315E+00
  2   1   1.775307E+01   7.027292E+02   3.019662E+04   6.422916E+00   6.947839E+00
  2   2   1.733763E+01   6.790945E+02   2.908245E+04   6.400772E+00   6.933419E+00
  3   1   6.490917E+00   2.210261E+02   8.976512E+03   6.102127E+00   6.738942E+00
  3   2   6.342955E+00   2.133572E+02   8.649952E+03   6.081293E+00   6.725374E+00
  3   3   2.322733E+00   6.528029E+01   2.571560E+03   5.782027E+00   6.530493E+00
  4   1   6.469129E+00   2.169033E+02   8.747172E+03   6.068255E+00   6.716884E+00
  4   2   6.323626E+00   2.094022E+02   8.431425E+03   6.047550E+00   6.703401E+00
  4   3   2.316740E+00   6.390109E+01   2.507024E+03   5.750331E+00   6.509852E+00
  4   4   2.311306E+00   6.254329E+01   2.444558E+03   5.718844E+00   6.489347E+00
  5   1   1.350268E+01   4.711476E+02   1.789058E+04   6.034146E+00   6.694672E+00
  5   2   1.324755E+01   4.567514E+02   1.728924E+04   6.011585E+00   6.679981E+00
  5   3   4.880528E+00   1.412730E+02   5.074868E+03   5.684093E+00   6.466718E+00
  5   4   4.882783E+00   1.387864E+02   4.951172E+03   5.649073E+00   6.443912E+00
  5   5   1.067462E+01   3.179707E+02   1.039529E+04   5.587267E+00   6.403665E+00
  6   1   6.181589E+00   2.185405E+02   9.113631E+03   6.200041E+00   6.802703E+00
  6   2   6.033555E+00   2.108047E+02   8.773312E+03   6.179089E+00   6.789059E+00
  6   3   2.205509E+00   6.485696E+01   2.611455E+03   5.878094E+00   6.593051E+00
  6   4   2.197860E+00   6.348338E+01   2.544677E+03   5.846274E+00   6.572330E+00
  6   5   4.581426E+00   1.385794E+02   5.125686E+03   5.788337E+00   6.534601E+00
  6   6   2.101299E+00   6.452803E+01   2.656372E+03   5.973475E+00   6.655163E+00
  7   1   6.339060E+00   2.212214E+02   9.130837E+03   6.164193E+00   6.779359E+00
  7   2   6.190153E+00   2.134576E+02   8.793295E+03   6.143256E+00   6.765725E+00
  7   3   2.264348E+00   6.555623E+01   2.615785E+03   5.842454E+00   6.569842E+00
  7   4   2.257292E+00   6.417223E+01   2.549355E+03   5.810629E+00   6.549118E+00
  7   5   4.724986E+00   1.407705E+02   5.146580E+03   5.749877E+00   6.509556E+00
  7   6   2.154463E+00   6.517968E+01   2.659028E+03   5.938192E+00   6.632187E+00
  7   7   2.210150E+00   6.585809E+01   2.662392E+03   5.902745E+00   6.609104E+00
  8   1   6.364706E+00   2.206152E+02   9.053831E+03   6.144994E+00   6.766857E+00
  8   2   6.217187E+00   2.129234E+02   8.721526E+03   6.124061E+00   6.753225E+00
  8   3   2.275334E+00   6.533763E+01   2.593699E+03   5.823269E+00   6.557349E+00
  8   4   2.268792E+00   6.396405E+01   2.528187E+03   5.791430E+00   6.536616E+00
  8   5   4.762700E+00   1.407708E+02   5.113098E+03   5.729174E+00   6.496074E+00
  8   6   2.162930E+00   6.492567E+01   2.635178E+03   5.919226E+00   6.619836E+00
  8   7   2.219644E+00   6.561745E+01   2.639074E+03   5.883681E+00   6.596689E+00
  8   8   2.229734E+00   6.538981E+01   2.616390E+03   5.864559E+00   6.584237E+00
  9   1   1.284069E+01   3.970498E+02   1.331536E+04   5.675456E+00   6.461093E+00
  9   2   1.264722E+01   3.858224E+02   1.290226E+04   5.652545E+00   6.446173E+00
  9   3   4.687234E+00   1.170617E+02   3.730606E+03   5.318059E+00   6.228356E+00
  9   4   4.703646E+00   1.150133E+02   3.640478E+03   5.281819E+00   6.204757E+00
  9   5   1.068616E+01   2.758725E+02   7.733404E+03   5.187387E+00   6.143263E+00
  9   6   4.350752E+00   1.143222E+02   3.764418E+03   5.429302E+00   6.300797E+00
  9   7   4.506933E+00   1.163740E+02   3.781492E+03   5.387949E+00   6.273869E+00
  9   8   4.556812E+00   1.165871E+02   3.759973E+03   5.365568E+00   6.259294E+00
  9   9   1.120947E+01   2.448618E+02   5.638146E+03   4.736013E+00   5.849328E+00
 10   1   1.272775E+01   3.931842E+02   1.319227E+04   5.674841E+00   6.460693E+00
 10   2   1.253489E+01   3.820279E+02   1.278206E+04   5.651957E+00   6.445791E+00
 10   3   4.644980E+00   1.158701E+02   3.696305E+03   5.317936E+00   6.228276E+00
 10   4   4.660924E+00   1.138319E+02   3.606873E+03   5.281750E+00   6.204712E+00
 10   5   1.057971E+01   2.728140E+02   7.654352E+03   5.187082E+00   6.143064E+00
 10   6   4.312620E+00   1.131937E+02   3.730495E+03   5.429065E+00   6.300643E+00
 10   7   4.466991E+00   1.152116E+02   3.747127E+03   5.387749E+00   6.273738E+00
 10   8   4.516118E+00   1.154134E+02   3.725592E+03   5.365387E+00   6.259176E+00
 10   9   1.108534E+01   2.418250E+02   5.576010E+03   4.736106E+00   5.849389E+00
 10  10   1.096289E+01   2.388320E+02   5.514730E+03   4.736205E+00   5.849453E+00
 11   1   1.818585E+01   7.274065E+02   3.136633E+04   6.445159E+00   6.962324E+00
 11   2   1.775297E+01   7.027297E+02   3.019671E+04   6.422929E+00   6.947848E+00
 11   3   6.490882E+00   2.210265E+02   8.976537E+03   6.102140E+00   6.738950E+00
 11   4   6.469093E+00   2.169037E+02   8.747196E+03   6.068267E+00   6.716892E+00
 11   5   1.350259E+01   4.711478E+02   1.789062E+04   6.034160E+00   6.694681E+00
 11   6   6.181557E+00   2.185409E+02   9.113659E+03   6.200054E+00   6.802711E+00
 11   7   6.339026E+00   2.212217E+02   9.130864E+03   6.164205E+00   6.779367E+00
 11   8   6.364672E+00   2.206155E+02   9.053857E+03   6.145007E+00   6.766865E+00
 11   9   1.284059E+01   3.970499E+02   1.331539E+04   5.675470E+00   6.461102E+00
 11  10   1.272765E+01   3.931842E+02   1.319230E+04   5.674855E+00   6.460702E+00
 11  11   1.818575E+01   7.274071E+02   3.136642E+04   6.445172E+00   6.962333E+00
 12   1   1.775304E+01   7.027294E+02   3.019667E+04   6.422921E+00   6.947842E+00
 12   2   1.733761E+01   6.790947E+02   2.908250E+04   6.400777E+00   6.933422E+00
 12   3   6.342945E+00   2.133573E+02   8.649966E+03   6.081298E+00   6.725377E+00
 12   4   6.323616E+00   2.094023E+02   8.431438E+03   6.047554E+00   6.703404E+00
 12   5   1.324752E+01   4.567515E+02   1.728927E+04   6.011590E+00   6.679984E+00
 12   6   6.033546E+00   2.108049E+02   8.773326E+03   6.179094E+00   6.789062E+00
 12   7   6.190143E+00   2.134577E+02   8.793309E+03   6.143261E+00   6.765728E+00
 12   8   6.217177E+00   2.129235E+02   8.721540E+03   6.124066E+00   6.753228E+00
 12   9   1.264719E+01   3.858225E+02   1.290228E+04   5.652550E+00   6.446177E+00
 12  10   1.253486E+01   3.820279E+02   1.278208E+04   5.651963E+00   6.445794E+00
 12  11   1.775295E+01   7.027299E+02   3.019676E+04   6.422934E+00   6.947851E+00
 12  12   1.733758E+01   6.790950E+02   2.908254E+04   6.400782E+00   6.933425E+00
 13   1   6.490978E+00   2.210265E+02   8.976484E+03   6.102108E+00   6.738929E+00
 13   2   6.343016E+00   2.133576E+02   8.649928E+03   6.081274E+00   6.725362E+00
 13   3   2.322756E+00   6.528033E+01   2.571552E+03   5.782009E+00   6.530481E+00
 13   4   2.316763E+00   6.390113E+01   2.507017E+03   5.750313E+00   6.509840E+00
 13   5   4.880587E+00   1.412734E+02   5.074856E+03   5.684073E+00   6.466705E+00
 13   6   2.205530E+00   6.485698E+01   2.611447E+03   5.878075E+00   6.593039E+00
 13   7   2.264370E+00   6.555626E+01   2.615777E+03   5.842436E+00   6.569831E+00
 13   8   2.275356E+00   6.533766E+01   2.593691E+03   5.823251E+00   6.557337E+00
 13   9   4.687299E+00   1.170621E+02   3.730598E+03   5.318038E+00   6.228343E+00
 13  10   4.645044E+00   1.158705E+02   3.696297E+03   5.317915E+00   6.228262E+00
 13  11   6.490943E+00   2.210268E+02   8.976509E+03   6.102121E+00   6.738937E+00
 13  12   6.343006E+00   2.133577E+02   8.649942E+03   6.081279E+00   6.725365E+00
 13  13   2.322779E+00   6.528036E+01   2.571545E+03   5.781991E+00   6.530469E+00
 14   1   6.469156E+00   2.169033E+02   8.747152E+03   6.068245E+00   6.716878E+00
 14   2   6.323653E+00   2.094022E+02   8.431406E+03   6.047540E+00   6.703394E+00
 14   3   2.316750E+00   6.390103E+01   2.507019E+03   5.750322E+00   6.509846E+00
 14   4   2.311317E+00   6.254322E+01   2.444553E+03   5.718835E+00   6.489342E+00
 14   5   4.882808E+00   1.387864E+02   4.951162E+03   5.649063E+00   6.443906E+00
 14   6   2.197869E+00   6.348332E+01   2.544672E+03   5.846265E+00   6.572324E+00
 14   7   2.257301E+00   6.417217E+01   2.549349E+03   5.810620E+00   6.549112E+00
 14   8   2.268802E+00   6.396398E+01   2.528181E+03   5.791421E+00   6.536610E+00
 14   9   4.703675E+00   1.150133E+02   3.640471E+03   5.281809E+00   6.204750E+00
 14  10   4.660953E+00   1.138319E+02   3.606866E+03   5.281739E+00   6.204705E+00
 14  11   6.469120E+00   2.169036E+02   8.747176E+03   6.068258E+00   6.716886E+00
 14  12   6.323643E+00   2.094023E+02   8.431420E+03   6.047545E+00   6.703397E+00
 14  13   2.316773E+00   6.390106E+01   2.507012E+03   5.750304E+00   6.509834E+00
 14  14   2.311327E+00   6.254316E+01   2.444548E+03   5.718826E+00   6.489336E+00
 15   1   1.350290E+01   4.711464E+02   1.789036E+04   6.034103E+00   6.694644E+00
 15   2   1.324778E+01   4.567503E+02   1.728904E+04   6.011542E+00   6.679952E+00
 15   3   4.880616E+00   1.412723E+02   5.074808E+03   5.684052E+00   6.466691E+00
 15   4   4.882872E+00   1.387857E+02   4.951115E+03   5.649032E+00   6.443886E+00
 15   5   1.067486E+01   3.179708E+02   1.039519E+04   5.587222E+00   6.403635E+00
 15   6   4.581502E+00   1.385786E+02   5.125622E+03   5.788296E+00   6.534574E+00
 15   7   4.725067E+00   1.407697E+02   5.146517E+03   5.749836E+00   6.509529E+00
 15   8   4.762783E+00   1.407700E+02   5.113037E+03   5.729132E+00   6.496047E+00
 15   9   1.068646E+01   2.758731E+02   7.733333E+03   5.187339E+00   6.143231E+00
 15  10   1.058000E+01   2.728145E+02   7.654281E+03   5.187034E+00   6.143033E+00
 15  11   1.350281E+01   4.711466E+02   1.789040E+04   6.034116E+00   6.694653E+00
 15  12   1.324775E+01   4.567504E+02   1.728907E+04   6.011547E+00   6.679956E+00
 15  13   4.880674E+00   1.412727E+02   5.074797E+03   5.684032E+00   6.466678E+00
 15  14   4.882897E+00   1.387857E+02   4.951105E+03   5.649022E+00   6.443879E+00
 15  15   1.067510E+01   3.179708E+02   1.039508E+04   5.587177E+00   6.403606E+00
 16   1   6.181586E+00   2.185408E+02   9.113656E+03   6.200046E+00   6.802707E+00
 16   2   6.033552E+00   2.108051E+02   8.773336E+03   6.179094E+00   6.789062E+00
 16   3   2.205508E+00   6.485708E+01   2.611463E+03   5.878098E+00   6.593054E+00
 16   4   2.197859E+00   6.348351E+01   2.544685E+03   5.846279E+00   6.572333E+00
 16   5   4.581423E+00   1.385797E+02   5.125701E+03   5.788342E+00   6.534605E+00
 16   6   2.101298E+00   6.452815E+01   2.656379E+03   5.973480E+00   6.655166E+00
 16   7   2.154462E+00   6.517980E+01   2.659035E+03   5.938197E+00   6.632190E+00
 16   8   2.162928E+00   6.492579E+01   2.635185E+03   5.919231E+00   6.619840E+00
 16   9   4.350748E+00   1.143224E+02   3.764430E+03   5.429307E+00   6.300801E+00
 16  10   4.312616E+00   1.131939E+02   3.730507E+03   5.429070E+00   6.300647E+00
 16  11   6.181554E+00   2.185412E+02   9.113683E+03   6.200059E+00   6.802715E+00
 16  12   6.033543E+00   2.108052E+02   8.773350E+03   6.179099E+00   6.789065E+00
 16  13   2.205528E+00   6.485711E+01   2.611454E+03   5.878080E+00   6.593042E+00
 16  14   2.197868E+00   6.348344E+01   2.544679E+03   5.846270E+00   6.572327E+00
 16  15   4.581498E+00   1.385789E+02   5.125637E+03   5.788301E+00   6.534578E+00
 16  16   2.101296E+00   6.452827E+01   2.656386E+03   5.973484E+00   6.655169E+00
 17   1   6.339088E+00   2.212217E+02   9.130830E+03   6.164185E+00   6.779353E+00
 17   2   6.190182E+00   2.134579E+02   8.793288E+03   6.143248E+00   6.765719E+00
 17   3   2.264359E+00   6.555630E+01   2.615783E+03   5.842446E+00   6.569837E+00
 17   4   2.257303E+00   6.417230E+01   2.549353E+03   5.810621E+00   6.549113E+00
 17   5   4.725014E+00   1.407708E+02   5.146578E+03   5.749868E+00   6.509550E+00
 17   6   2.154473E+00   6.517974E+01   2.659025E+03   5.938184E+00   6.632182E+00
 17   7   2.210161E+00   6.585816E+01   2.662389E+03   5.902737E+00   6.609098E+00
 17   8   2.219655E+00   6.561752E+01   2.639072E+03   5.883673E+00   6.596684E+00
 17   9   4.506964E+00   1.163743E+02   3.781492E+03   5.387940E+00   6.273863E+00
 17  10   4.467021E+00   1.152119E+02   3.747127E+03   5.387740E+00   6.273732E+00
 17  11   6.339055E+00   2.212220E+02   9.130857E+03   6.164197E+00   6.779361E+00
 17  12   6.190172E+00   2.134580E+02   8.793303E+03   6.143253E+00   6.765723E+00
 17  13   2.264380E+00   6.555633E+01   2.615775E+03   5.842428E+00   6.569825E+00
 17  14   2.257312E+00   6.417224E+01   2.549347E+03   5.810612E+00   6.549107E+00
 17  15   4.725094E+00   1.407700E+02   5.146516E+03   5.749827E+00   6.509524E+00
 17  16   2.154472E+00   6.517986E+01   2.659033E+03   5.938189E+00   6.632185E+00
 17  17   2.210171E+00   6.585822E+01   2.662387E+03   5.902729E+00   6.609093E+00
 18   1   6.364759E+00   2.206154E+02   9.053793E+03   6.144975E+00   6.766844E+00
 18   2   6.217240E+00   2.129236E+02   8.721491E+03   6.124042E+00   6.753212E+00
 18   3   2.275354E+00   6.533762E+01   2.593687E+03   5.823251E+00   6.557337E+00
 18   4   2.268812E+00   6.396404E+01   2.528176E+03   5.791412E+00   6.536604E+00
 18   5   4.762751E+00   1.407710E+02   5.113080E+03   5.729153E+00   6.496061E+00
 18   6   2.162948E+00   6.492565E+01   2.635166E+03   5.919208E+00   6.619824E+00
 18   7   2.219663E+00   6.561744E+01   2.639062E+03   5.883662E+00   6.596677E+00
 18   8   2.229753E+00   6.538981E+01   2.616378E+03   5.864540E+00   6.584225E+00
 18   9   4.556869E+00   1.165874E+02   3.759958E+03   5.365546E+00   6.259280E+00
 18  10   4.516174E+00   1.154137E+02   3.725577E+03   5.365365E+00   6.259162E+00
 18  11   6.364725E+00   2.206157E+02   9.053819E+03   6.144988E+00   6.766852E+00
 18  12   6.217230E+00   2.129237E+02   8.721505E+03   6.124047E+00   6.753215E+00
 18  13   2.275376E+00   6.533765E+01   2.593679E+03   5.823232E+00   6.557325E+00
 18  14   2.268822E+00   6.396398E+01   2.528171E+03   5.791403E+00   6.536598E+00
 18  15   4.762834E+00   1.407703E+02   5.113018E+03   5.729112E+00   6.496034E+00
 18  16   2.162946E+00   6.492577E+01   2.635173E+03   5.919213E+00   6.619827E+00
 18  17   2.219673E+00   6.561751E+01   2.639060E+03   5.883654E+00   6.596672E+00
 18  18   2.229772E+00   6.538980E+01   2.616367E+03   5.864521E+00   6.584213E+00
 19   1   1.284074E+01   3.970494E+02   1.331532E+04   5.675447E+00   6.461087E+00
 19   2   1.264727E+01   3.858220E+02   1.290222E+04   5.652535E+00   6.446167E+00
 19   3   4.687252E+00   1.170614E+02   3.730595E+03   5.318050E+00   6.228351E+00
 19   4   4.703665E+00   1.150131E+02   3.640468E+03   5.281810E+00   6.204751E+00
 19   5   1.068621E+01   2.758724E+02   7.733382E+03   5.187377E+00   6.143256E+00
 19   6   4.350768E+00   1.143220E+02   3.764407E+03   5.429293E+00   6.300792E+00
 19   7   4.506950E+00   1.163738E+02   3.781481E+03   5.387940E+00   6.273863E+00
 19   8   4.556829E+00   1.165869E+02   3.759962E+03   5.365559E+00   6.259288E+00
 19   9   1.120954E+01   2.448617E+02   5.638130E+03   4.736003E+00   5.849321E+00
 19  10   1.108541E+01   2.418249E+02   5.575995E+03   4.736096E+00   5.849382E+00
 19  11   1.284064E+01   3.970494E+02   1.331535E+04   5.675460E+00   6.461096E+00
 19  12   1.264724E+01   3.858221E+02   1.290224E+04   5.652541E+00   6.446171E+00
 19  13   4.687318E+00   1.170618E+02   3.730588E+03   5.318029E+00   6.228337E+00
 19  14   4.703694E+00   1.150131E+02   3.640461E+03   5.281800E+00   6.204744E+00
 19  15   1.068651E+01   2.758729E+02   7.733311E+03   5.187329E+00   6.143225E+00
 19  16   4.350764E+00   1.143222E+02   3.764419E+03   5.429298E+00   6.300795E+00
 19  17   4.506981E+00   1.163741E+02   3.781480E+03   5.387931E+00   6.273857E+00
 19  18   4.556886E+00   1.165872E+02   3.759947E+03   5.365538E+00   6.259274E+00
 19  19   1.120961E+01   2.448617E+02   5.638115E+03   4.735992E+00   5.849314E+00
 20   1   1.272778E+01   3.931844E+02   1.319226E+04   5.674837E+00   6.460690E+00
 20   2   1.253492E+01   3.820281E+02   1.278205E+04   5.651954E+00   6.445789E+00
 20   3   4.644990E+00   1.158701E+02   3.696303E+03   5.317932E+00   6.228274E+00
 20   4   4.660935E+00   1.138320E+02   3.606871E+03   5.281746E+00   6.204709E+00
 20   5   1.057974E+01   2.728142E+02   7.654350E+03   5.187078E+00   6.143061E+00
 20   6   4.312630E+00   1.131937E+02   3.730493E+03   5.429061E+00   6.300641E+00
 20   7   4.467001E+00   1.152116E+02   3.747126E+03   5.387746E+00   6.273736E+00
 20   8   4.516128E+00   1.154135E+02   3.725590E+03   5.365384E+00   6.259174E+00
 20   9   1.108538E+01   2.418253E+02   5.576009E+03   4.736102E+00   5.849386E+00
 20  10   1.096292E+01   2.388323E+02   5.514729E+03   4.736200E+00   5.849450E+00
 20  11   1.272768E+01   3.931845E+02   1.319229E+04   5.674851E+00   6.460699E+00
 20  12   1.253489E+01   3.820281E+02   1.278208E+04   5.651959E+00   6.445792E+00
 20  13   4.645055E+00   1.158705E+02   3.696295E+03   5.317911E+00   6.228260E+00
 20  14   4.660963E+00   1.138320E+02   3.606864E+03   5.281736E+00   6.204703E+00
 20  15   1.058003E+01   2.728147E+02   7.654279E+03   5.187030E+00   6.143030E+00
 20  16   4.312626E+00   1.131939E+02   3.730505E+03   5.429067E+00   6.300645E+00
 20  17   4.467031E+00   1.152119E+02   3.747125E+03   5.387736E+00   6.273730E+00
 20  18   4.516184E+00   1.154138E+02   3.725576E+03   5.365362E+00   6.259160E+00
 20  19   1.108545E+01   2.418252E+02   5.575994E+03   4.736091E+00   5.849379E+00
 20  20   1.096296E+01   2.388327E+02   5.514728E+03   4.736196E+00   5.849447E+00
 21   1   1.818594E+01   7.274059E+02   3.136624E+04   6.445146E+00   6.962315E+00
 21   2   1.775307E+01   7.027292E+02   3.019662E+04   6.422916E+00   6.947839E+00
 21   3   6.490917E+00   2.210261E+02   8.976512E+03   6.102127E+00   6.738942E+00
 21   4   6.469129E+00   2.169033E+02   8.747172E+03   6.068255E+00   6.716884E+00
 21   5   1.350268E+01   4.711476E+02   1.789058E+04   6.034146E+00   6.694672E+00
 21   6   6.181589E+00   2.185405E+02   9.113631E+03   6.200041E+00   6.802703E+00
 21   7   6.339060E+00   2.212214E+02   9.130837E+03   6.164193E+00   6.779359E+00
 21   8   6.364706E+00   2.206152E+02   9.053831E+03   6.144994E+00   6.766857E+00
 21   9   1.284069E+01   3.970498E+02   1.331536E+04   5.675456E+00   6.461093E+00
 21  10   1.272775E+01   3.931842E+02   1.319227E+04   5.674841E+00   6.460693E+00
 21  11   1.818585E+01   7.274065E+02   3.136633E+04   6.445159E+00   6.962324E+00
 21  12   1.775304E+01   7.027294E+02   3.019667E+04   6.422921E+00   6.947842E+00
 21  13   6.490978E+00   2.210265E+02   8.976484E+03   6.102108E+00   6.738929E+00
 21  14   6.469156E+00   2.169033E+02   8.747152E+03   6.068245E+00   6.716878E+00
 21  15   1.350290E+01   4.711464E+02   1.789036E+04   6.034103E+00   6.694644E+00
 21  16   6.181586E+00   2.185408E+02   9.113656E+03   6.200046E+00   6.802707E+00
 21  17   6.339088E+00   2.212217E+02   9.130830E+03   6.164185E+00   6.779353E+00
 21  18   6.364759E+00   2.206154E+02   9.053793E+03   6.144975E+00   6.766844E+00
 21  19   1.284074E+01   3.970494E+02   1.331532E+04   5.675447E+00   6.461087E+00
 21  20   1.272778E+01   3.931844E+02   1.319226E+04   5.674837E+00   6.460690E+00
 21  21   1.818594E+01   7.274059E+02   3.136624E+04   6.445146E+00   6.962315E+00
 22   1   1.775307E+01   7.027292E+02   3.019662E+04   6.422916E+00   6.947839E+00
 22   2   1.733763E+01   6.790945E+02   2.908245E+04   6.400772E+00   6.933419E+00
 22   3   6.342955E+00   2.133572E+02   8.649952E+03   6.081293E+00   6.725374E+00
 22   4   6.323626E+00   2.094022E+02   8.431425E+03   6.047550E+00   6.703401E+00
 22   5   1.324755E+01   4.567514E+02   1.728924E+04   6.011585E+00   6.679981E+00
 22   6   6.033555E+00   2.108047E+02   8.773312E+03   6.179089E+00   6.789059E+00
 22   7   6.190153E+00   2.134576E+02   8.793295E+03   6.143256E+00   6.765725E+00
 22   8   6.217187E+00   2.129234E+02   8.721526E+03   6.124061E+00   6.753225E+00
 22   9   1.264722E+01   3.858224E+02   1.290226E+04   5.652545E+00   6.446173E+00
 22  10   1.253489E+01   3.820279E+02   1.278206E+04   5.651957E+00   6.445791E+00
 22  11   1.775297E+01   7.027297E+02   3.019671E+04   6.422929E+00   6.947848E+00
 22  12   1.733761E+01   6.790947E+02   2.908250E+04   6.400777E+00   6.933422E+00
 22  13   6.343016E+00   2.133576E+02   8.649928E+03   6.081274E+00   6.725362E+00
 22  14   6.323653E+00   2.094022E+02   8.431406E+03   6.047540E+00   6.703394E+00
 22  15   1.324778E+01   4.567503E+02   1.728904E+04   6.011542E+00   6.679952E+00
 22  16   6.033552E+00   2.108051E+02   8.773336E+03   6.179094E+00   6.789062E+00
 22  17   6.190182E+00   2.134579E+02   8.793288E+03   6.143248E+00   6.765719E+00
 22  18   6.217240E+00   2.129236E+02   8.721491E+03   6.124042E+00   6.753212E+00
 22  19   1.264727E+01   3.858220E+02   1.290222E+04   5.652535E+00   6.446167E+00
 22  20   1.253492E+01   3.820281E+02   1.278205E+04   5.651954E+00   6.445789E+00
 22  21   1.775307E+01   7.027292E+02   3.019662E+04   6.422916E+00   6.947839E+00
 22  22   1.733763E+01   6.790945E+02   2.908245E+04   6.400772E+00   6.933419E+00
 23   1   6.490917E+00   2.210261E+02   8.976512E+03   6.102127E+00   6.738942E+00
 23   2   6.342955E+00   2.133572E+02   8.649952E+03   6.081293E+00   6.725374E+00
 23   3   2.322733E+00   6.528029E+01   2.571560E+03   5.782027E+00   6.530493E+00
 23   4   2.316740E+00   6.390109E+01   2.507024E+03   5.750331E+00   6.509852E+00
 23   5   4.880528E+00   1.412730E+02   5.074868E+03   5.684093E+00   6.466718E+00
 23   6   2.205509E+00   6.485696E+01   2.611455E+03   5.878094E+00   6.593051E+00
 23   7   2.264348E+00   6.555623E+01   2.615785E+03   5.842454E+00   6.569842E+00
 23   8   2.275334E+00   6.533763E+01   2.593699E+03   5.823269E+00   6.557349E+00
 23   9   4.687234E+00   1.170617E+02   3.730606E+03   5.318059E+00   6.228356E+00
 23  10   4.644980E+00   1.158701E+02   3.696305E+03   5.317936E+00   6.228276E+00
 23  11   6.490882E+00   2.210265E+02   8.976537E+03   6.102140E+00   6.738950E+00
 23  12   6.342945E+00   2.133573E+02   8.649966E+03   6.081298E+00   6.725377E+00
 23  13   2.322756E+00   6.528033E+01   2.571552E+03   5.782009E+00   6.530481E+00
 23  14   2.316750E+00   6.390103E+01   2.507019E+03   5.750322E+00   6.509846E+00
 23  15   4.880616E+00   1.412723E+02   5.074808E+03   5.684052E+00   6.466691E+00
 23  16   2.205508E+00   6.485708E+01   2.611463E+03   5.878098E+00   6.593054E+00
 23  17   2.264359E+00   6.555630E+01   2.615783E+03   5.842446E+00   6.569837E+00
 23  18   2.275354E+00   6.533762E+01   2.593687E+03   5.823251E+00   6.557337E+00
 23  19   4.687252E+00   1.170614E+02   3.730595E+03   5.318050E+00   6.228351E+00
 23  20   4.644990E+00   1.158701E+02   3.696303E+03   5.317932E+00   6.228274E+00
 23  21   6.490917E+00   2.210261E+02   8.976512E+03   6.102127E+00   6.738942E+00
 23  22   6.342955E+00   2.133572E+02   8.649952E+03   6.081293E+00   6.725374E+00
 23  23   2.322733E+00   6.528029E+01   2.571560E+03   5.782027E+00   6.530493E+00
 24   1   6.469129E+00   2.169033E+02   8.747172E+03   6.068255E+00   6.716884E+00
 24   2   6.323626E+00   2.094022E+02   8.431425E+03   6.047550E+00   6.703401E+00
 24   3   2.316740E+00   6.390109E+01   2.507024E+03   5.750331E+00   6.509852E+00
 24   4   2.311306E+00   6.254329E+01   2.444558E+03   5.718844E+00   6.489347E+00
 24   5   4.882783E+00   1.387864E+02   4.951172E+03   5.649073E+00   6.443912E+00
 24   6   2.197860E+00   6.348338E+01   2.544677E+03   5.846274E+00   6.572330E+00
 24   7   2.257292E+00   6.417223E+01   2.549355E+03   5.810629E+00   6.549118E+00
 24   8   2.268792E+00   6.396405E+01   2.528187E+03   5.791430E+00   6.536616E+00
 24   9   4.703646E+00   1.150133E+02   3.640478E+03   5.281819E+00   6.204757E+00
 24  10   4.660924E+00   1.138319E+02   3.606873E+03   5.281750E+00   6.204712E+00
 24  11   6.469093E+00   2.169037E+02   8.747196E+03   6.068267E+00   6.716892E+00
 24  12   6.323616E+00   2.094023E+02   8.431438E+03   6.047554E+00   6.703404E+00
 24  13   2.316763E+00   6.390113E+01   2.507017E+03   5.750313E+00   6.509840E+00
 24  14   2.311317E+00   6.254322E+01   2.444553E+03   5.718835E+00   6.489342E+00
 24  15   4.882872E+00   1.387857E+02   4.951115E+03   5.649032E+00   6.443886E+00
 24  16   2.197859E+00   6.348351E+01   2.544685E+03   5.846279E+00   6.572333E+00
 24  17   2.257303E+00   6.417230E+01   2.549353E+03   5.810621E+00   6.549113E+00
 24  18   2.268812E+00   6.396404E+01   2.528176E+03   5.791412E+00   6.536604E+00
 24  19   4.703665E+00   1.150131E+02   3.640468E+03   5.281810E+00   6.204751E+00
 24  20   4.660935E+00   1.138320E+02   3.606871E+03   5.281746E+00   6.204709E+00
 24  21   6.469129E+00   2.169033E+02   8.747172E+03   6.068255E+00   6.716884E+00
 24  22   6.323626E+00   2.094022E+02   8.431425E+03   6.047550E+00   6.703401E+00
 24  23   2.316740E+00   6.390109E+01   2.507024E+03   5.750331E+00   6.509852E+00
 24  24   2.311306E+00   6.254329E+01   2.444558E+03   5.718844E+00   6.489347E+00
 25   1   1.350268E+01   4.711476E+02   1.789058E+04   6.034146E+00   6.694672E+00
 25   2   1.324755E+01   4.567514E+02   1.728924E+04   6.011585E+00   6.679981E+00
 25   3   4.880528E+00   1.412730E+02   5.074868E+03   5.684093E+00   6.466718E+00
 25   4   4.882783E+00   1.387864E+02   4.951172E+03   5.649073E+00   6.443912E+00
 25   5   1.067462E+01   3.179707E+02   1.039529E+04   5.587267E+00   6.403665E+00
 25   6   4.581426E+00   1.385794E+02   5.125686E+03   5.788337E+00   6.534601E+00
 25   7   4.724986E+00   1.407705E+02   5.146580E+03   5.749877E+00   6.509556E+00
 25   8   4.762700E+00   1.407708E+02   5.113098E+03   5.729174E+00   6.496074E+00
 25   9   1.068616E+01   2.758725E+02   7.733404E+03   5.187387E+00   6.143263E+00
 25  10   1.057971E+01   2.728140E+02   7.654352E+03   5.187082E+00   6.143064E+00
 25  11   1.350259E+01   4.711478E+02   1.789062E+04   6.034160E+00   6.694681E+00
 25  12   1.324752E+01   4.567515E+02   1.728927E+04   6.011590E+00   6.679984E+00
 25  13   4.880587E+00   1.412734E+02   5.074856E+03   5.684073E+00   6.466705E+00
 25  14   4.882808E+00   1.387864E+02   4.951162E+03   5.649063E+00   6.443906E+00
 25  15   1.067486E+01   3.179708E+02   1.039519E+04   5.587222E+00   6.403635E+00
 25  16   4.581423E+00   1.385797E+02   5.125701E+03   5.788342E+00   6.534605E+00
 25  17   4.725014E+00   1.407708E+02   5.146578E+03   5.749868E+00   6.509550E+00
 25  18   4.762751E+00   1.407710E+02   5.113080E+03   5.729153E+00   6.496061E+00
 25  19   1.068621E+01   2.758724E+02   7.733382E+03   5.187377E+00   6.143256E+00
 25  20   1.057974E+01   2.728142E+02   7.654350E+03   5.187078E+00   6.143061E+00
 25  21   1.350268E+01   4.711476E+02   1.789058E+04   6.034146E+00   6.694672E+00
 25  22   1.324755E+01   4.567514E+02   1.728924E+04   6.011585E+00   6.679981E+00
 25  23   4.880528E+00   1.412730E+02   5.074868E+03   5.684093E+00   6.466718E+00
 25  24   4.882783E+00   1.387864E+02   4.951172E+03   5.649073E+00   6.443912E+00
 25  25   1.067462E+01   3.179707E+02   1.039529E+04   5.587267E+00   6.403665E+00
 26   1   6.181589E+00   2.185405E+02   9.113631E+03   6.200041E+00   6.802703E+00
 26   2   6.033555E+00   2.108047E+02   8.773312E+03   6.179089E+00   6.789059E+00
 26   3   2.205509E+00   6.485696E+01   2.611455E+03   5.878094E+00   6.593051E+00
 26   4   2.197860E+00   6.348338E+01   2.544677E+03   5.846274E+00   6.572330E+00
 26   5   4.581426E+00   1.385794E+02   5.125686E+03   5.788337E+00   6.534601E+00
 26   6   2.101299E+00   6.452803E+01   2.656372E+03   5.973475E+00   6.655163E+00
 26   7   2.154463E+00   6.517968E+01   2.659028E+03   5.938192E+00   6.632187E+00
 26   8   2.162930E+00   6.492567E+01   2.635178E+03   5.919226E+00   6.619836E+00
 26   9   4.350752E+00   1.143222E+02   3.764418E+03   5.429302E+00   6.300797E+00
 26  10   4.312620E+00   1.131937E+02   3.730495E+03   5.429065E+00   6.300643E+00
 26  11   6.181557E+00   2.185409E+02   9.113659E+03   6.200054E+00   6.802711E+00
 26  12   6.033546E+00   2.108049E+02   8.773326E+03   6.179094E+00   6.789062E+00
 26  13   2.205530E+00   6.485698E+01   2.611447E+03   5.878075E+00   6.593039E+00
 26  14   2.197869E+00   6.348332E+01   2.544672E+03   5.846265E+00   6.572324E+00
 26  15   4.581502E+00   1.385786E+02   5.125622E+03   5.788296E+00   6.534574E+00
 26  16   2.101298E+00   6.452815E+01   2.656379E+03   5.973480E+00   6.655166E+00
 26  17   2.154473E+00   6.517974E+01   2.659025E+03   5.938184E+00   6.632182E+00
 26  18   2.162948E+00   6.492565E+01   2.635166E+03   5.919208E+00   6.619824E+00
 26  19   4.350768E+00   1.143220E+02   3.764407E+03   5.429293E+00   6.300792E+00
 26  20   4.312630E+00   1.131937E+02   3.730493E+03   5.429061E+00   6.300641E+00
 26  21   6.181589E+00   2.185405E+02   9.113631E+03   6.200041E+00   6.802703E+00
 26  22   6.033555E+00   2.108047E+02   8.773312E+03   6.179089E+00   6.789059E+00
 26  23   2.205509E+00   6.485696E+01   2.611455E+03   5.878094E+00   6.593051E+00
 26  24   2.197860E+00   6.348338E+01   2.544677E+03   5.846274E+00   6.572330E+00
 26  25   4.581426E+00   1.385794E+02   5.125686E+03   5.788337E+00   6.534601E+00
 26  26   2.101299E+00   6.452803E+01   2.656372E+03   5.973475E+00   6.655163E+00
 27   1   6.339060E+00   2.212214E+02   9.130837E+03   6.164193E+00   6.779359E+00
 27   2   6.190153E+00   2.134576E+02   8.793295E+03   6.143256E+00   6.765725E+00
 27   3   2.264348E+00   6.555623E+01   2.615785E+03   5.842454E+00   6.569842E+00
 27   4   2.257292E+00   6.417223E+01   2.549355E+03   5.810629E+00   6.549118E+00
 27   5   4.724986E+00   1.407705E+02   5.146580E+03   5.749877E+00   6.509556E+00
 27   6   2.154463E+00   6.517968E+01   2.659028E+03   5.938192E+00   6.632187E+00
 27   7   2.210150E+00   6.585809E+01   2.662392E+03   5.902745E+00   6.609104E+00
 27   8   2.219644E+00   6.561745E+01   2.639074E+03   5.883681E+00   6.596689E+00
 27   9   4.506933E+00   1.163740E+02   3.781492E+03   5.387949E+00   6.273869E+00
 27  10   4.466991E+00   1.152116E+02   3.747127E+03   5.387749E+00   6.273738E+00
 27  11   6.339026E+00   2.212217E+02   9.130864E+03   6.164205E+00   6.779367E+00
 27  12   6.190143E+00   2.134577E+02   8.793309E+03   6.143261E+00   6.765728E+00
 27  13   2.264370E+00   6.555626E+01   2.615777E+03   5.842436E+00   6.569831E+00
 27  14   2.257301E+00   6.417217E+01   2.549349E+03   5.810620E+00   6.549112E+00
 27  15   4.725067E+00   1.407697E+02   5.146517E+03   5.749836E+00   6.509529E+00
 27  16   2.154462E+00   6.517980E+01   2.659035E+03   5.938197E+00   6.632190E+00
 27  17   2.210161E+00   6.585816E+01   2.662389E+03   5.902737E+00   6.609098E+00
 27  18   2.219663E+00   6.561744E+01   2.639062E+03   5.883662E+00   6.596677E+00
 27  19   4.506950E+00   1.163738E+02   3.781481E+03   5.387940E+00   6.273863E+00
 27  20   4.467001E+00   1.152116E+02   3.747126E+03   5.387746E+00   6.273736E+00
 27  21   6.339060E+00   2.212214E+02   9.130837E+03   6.164193E+00   6.779359E+00
 27  22   6.190153E+00   2.134576E+02   8.793295E+03   6.143256E+00   6.765725E+00
 27  23   2.264348E+00   6.555623E+01   2.615785E+03   5.842454E+00   6.569842E+00
 27  24   2.257292E+00   6.417223E+01   2.549355E+03   5.810629E+00   6.549118E+00
 27  25   4.724986E+00   1.407705E+02   5.146580E+03   5.749877E+00   6.509556E+00
 27  26   2.154463E+00   6.517968E+01   2.659028E+03   5.938192E+00   6.632187E+00
 27  27   2.210150E+00   6.585809E+01   2.662392E+03   5.902745E+00   6.609104E+00
 28   1   6.364706E+00   2.206152E+02   9.053831E+03   6.144994E+00   6.766857E+00
 28   2   6.217187E+00   2.129234E+02   8.721526E+03   6.124061E+00   6.753225E+00
 28   3   2.275334E+00   6.533763E+01   2.593699E+03   5.823269E+00   6.557349E+00
 28   4   2.268792E+00   6.396405E+01   2.528187E+03   5.791430E+00   6.536616E+00
 28   5   4.762700E+00   1.407708E+02   5.113098E+03   5.729174E+00   6.496074E+00
 28   6   2.162930E+00   6.492567E+01   2.635178E+03   5.919226E+00   6.619836E+00
 28   7   2.219644E+00   6.561745E+01   2.639074E+03   5.883681E+00   6.596689E+00
 28   8   2.229734E+00   6.538981E+01   2.616390E+03   5.864559E+00   6.584237E+00
 28   9   4.556812E+00   1.165871E+02   3.759973E+03   5.365568E+00   6.259294E+00
 28  10   4.516118E+00   1.154134E+02   3.725592E+03   5.365387E+00   6.259176E+00
 28  11   6.364672E+00   2.206155E+02   9.053857E+03   6.145007E+00   6.766865E+00
 28  12   6.217177E+00   2.129235E+02   8.721540E+03   6.124066E+00   6.753228E+00
 28  13   2.275356E+00   6.533766E+01   2.593691E+03   5.823251E+00   6.557337E+00
 28  14   2.268802E+00   6.396398E+01   2.528181E+03   5.791421E+00   6.536610E+00
 28  15   4.762783E+00   1.407700E+02   5.113037E+03   5.729132E+00   6.496047E+00
 28  16   2.162928E+00   6.492579E+01   2.635185E+03   5.919231E+00   6.619840E+00
 28  17   2.219655E+00   6.561752E+01   2.639072E+03   5.883673E+00   6.596684E+00
 28  18   2.229753E+00   6.538981E+01   2.616378E+03   5.864540E+00   6.584225E+00
 28  19   4.556829E+00   1.165869E+02   3.759962E+03   5.365559E+00   6.259288E+00
 28  20   4.516128E+00   1.154135E+02   3.725590E+03   5.365384E+00   6.259174E+00
 28  21   6.364706E+00   2.206152E+02   9.053831E+03   6.144994E+00   6.766857E+00
 28  22   6.217187E+00   2.129234E+02   8.721526E+03   6.124061E+00   6.753225E+00
 28  23   2.275334E+00   6.533763E+01   2.593699E+03   5.823269E+00   6.557349E+00
 28  24   2.268792E+00   6.396405E+01   2.528187E+03   5.791430E+00   6.536616E+00
 28  25   4.762700E+00   1.407708E+02   5.113098E+03   5.729174E+00   6.496074E+00
 28  26   2.162930E+00   6.492567E+01   2.635178E+03   5.919226E+00   6.619836E+00
 28  27   2.219644E+00   6.561745E+01   2.639074E+03   5.883681E+00   6.596689E+00
 28  28   2.229734E+00   6.538981E+01   2.616390E+03   5.864559E+00   6.584237E+00
 29   1   1.284069E+01   3.970498E+02   1.331536E+04   5.675456E+00   6.461093E+00
 29   2   1.264722E+01   3.858224E+02   1.290226E+04   5.652545E+00   6.446173E+00
 29   3   4.687234E+00   1.170617E+02   3.730606E+03   5.318059E+00   6.228356E+00
 29   4   4.703646E+00   1.150133E+02   3.640478E+03   5.281819E+00   6.204757E+00
 29   5   1.068616E+01   2.758725E+02   7.733404E+03   5.187387E+00   6.143263E+00
 29   6   4.350752E+00   1.143222E+02   3.764418E+03   5.429302E+00   6.300797E+00
 29   7   4.506933E+00   1.163740E+02   3.781492E+03   5.387949E+00   6.273869E+00
 29   8   4.556812E+00   1.165871E+02   3.759973E+03   5.365568E+00   6.259294E+00
 29   9   1.120947E+01   2.448618E+02   5.638146E+03   4.736013E+00   5.849328E+00
 29  10   1.108534E+01   2.418250E+02   5.576010E+03   4.736106E+00   5.849389E+00
 29  11   1.284059E+01   3.970499E+02   1.331539E+04   5.675470E+00   6.461102E+00
 29  12   1.264719E+01   3.858225E+02   1.290228E+04   5.652550E+00   6.446177E+00
 29  13   4.687299E+00   1.170621E+02   3.730598E+03   5.318038E+00   6.228343E+00
 29  14   4.703675E+00   1.150133E+02   3.640471E+03   5.281809E+00   6.204750E+00
 29  15   1.068646E+01   2.758731E+02   7.733333E+03   5.187339E+00   6.143231E+00
 29  16   4.350748E+00   1.143224E+02   3.764430E+03   5.429307E+00   6.300801E+00
 29  17   4.506964E+00   1.163743E+02   3.781492E+03   5.387940E+00   6.273863E+00
 29  18   4.556869E+00   1.165874E+02   3.759958E+03   5.365546E+00   6.259280E+00
 29  19   1.120954E+01   2.448617E+02   5.638130E+03   4.736003E+00   5.849321E+00
 29  20   1.108538E+01   2.418253E+02   5.576009E+03   4.736102E+00   5.849386E+00
 29  21   1.284069E+01   3.970498E+02   1.331536E+04   5.675456E+00   6.461093E+00
 29  22   1.264722E+01   3.858224E+02   1.290226E+04   5.652545E+00   6.446173E+00
 29  23   4.687234E+00   1.170617E+02   3.730606E+03   5.318059E+00   6.228356E+00
 29  24   4.703646E+00   1.150133E+02   3.640478E+03   5.281819E+00   6.204757E+00
 29  25   1.068616E+01   2.758725E+02   7.733404E+03   5.187387E+00   6.143263E+00
 29  26   4.350752E+00   1.143222E+02   3.764418E+03   5.429302E+00   6.300797E+00
 29  27   4.506933E+00   1.163740E+02   3.781492E+03   5.387949E+00   6.273869E+00
 29  28   4.556812E+00   1.165871E+02   3.759973E+03   5.365568E+00   6.259294E+00
 29  29   1.120947E+01   2.448618E+02   5.638146E+03   4.736013E+00   5.849328E+00
 30   1   1.272775E+01   3.931842E+02   1.319227E+04   5.674841E+00   6.460693E+00
 30   2   1.253489E+01   3.820279E+02   1.278206E+04   5.651957E+00   6.445791E+00
 30   3   4.644980E+00   1.158701E+02   3.696305E+03   5.317936E+00   6.228276E+00
 30   4   4.660924E+00   1.138319E+02   3.606873E+03   5.281750E+00   6.204712E+00
 30   5   1.057971E+01   2.728140E+02   7.654352E+03   5.187082E+00   6.143064E+00
 30   6   4.312620E+00   1.131937E+02   3.730495E+03   5.429065E+00   6.300643E+00
 30   7   4.466991E+00   1.152116E+02   3.747127E+03   5.387749E+00   6.273738E+00
 30   8   4.516118E+00   1.154134E+02   3.725592E+03   5.365387E+00   6.259176E+00
 30   9   1.108534E+01   2.418250E+02   5.576010E+03   4.736106E+00   5.849389E+00
 30  10   1.096289E+01   2.388320E+02   5.514730E+03   4.736205E+00   5.849453E+00
 30  11   1.272765E+01   3.931842E+02   1.319230E+04   5.674855E+00   6.460702E+00
 30  12   1.253486E+01   3.820279E+02   1.278208E+04   5.651963E+00   6.445794E+00
 30  13   4.645044E+00   1.158705E+02   3.696297E+03   5.317915E+00   6.228262E+00
 30  14   4.660953E+00   1.138319E+02   3.606866E+03   5.281739E+00   6.204705E+00
 30  15   1.058000E+01   2.728145E+02   7.654281E+03   5.187034E+00   6.143033E+00
 30  16   4.312616E+00   1.131939E+02   3.730507E+03   5.429070E+00   6.300647E+00
 30  17   4.467021E+00   1.152119E+02   3.747127E+03   5.387740E+00   6.273732E+00
 30  18   4.516174E+00   1.154137E+02   3.725577E+03   5.365365E+00   6.259162E+00
 30  19   1.108541E+01   2.418249E+02   5.575995E+03   4.736096E+00   5.849382E+00
 30  20   1.096292E+01   2.388323E+02   5.514729E+03   4.736200E+00   5.849450E+00
 30  21   1.272775E+01   3.931842E+02   1.319227E+04   5.674841E+00   6.460693E+00
 30  22   1.253489E+01   3.820279E+02   1.278206E+04   5.651957E+00   6.445791E+00
 30  23   4.644980E+00   1.158701E+02   3.696305E+03   5.317936E+00   6.228276E+00
 30  24   4.660924E+00   1.138319E+02   3.606873E+03   5.281750E+00   6.204712E+00
[...]
     atom   20 type  4   force =    -5.12564565    0.51991634   -6.04223787
     atom   21 type  2   force =    -0.68542069    1.94669020    2.31090902
     atom   22 type  2   force =     1.13091453    2.41058672    2.62716158
     atom   23 type  1   force =    -0.20948250    1.87484070    0.29435867
     atom   24 type  1   force =     1.39762538   -0.22253336    1.66038521
     atom   25 type  3   force =    -2.00003475    0.02968662    1.72504491
     atom   26 type  1   force =    -0.06890347   -2.15915620    0.12370677
     atom   27 type  1   force =    -1.48120133    0.91503763   -0.82139815
     atom   28 type  1   force =    -0.70407557    0.28174432    1.43000017
     atom   29 type  4   force =     6.44641500    3.19760696   -1.40594615
     atom   30 type  4   force =    -5.12567765   -0.51990601   -6.04229935
     atom   31 type  2   force =     0.68567297    1.94664823   -2.31086392
     atom   32 type  2   force =    -1.13092328    2.41058241   -2.62715376
     atom   33 type  1   force =     0.20946842    1.87485993   -0.29436233
     atom   34 type  1   force =    -1.39761204   -0.22252634   -1.66037772
     atom   35 type  3   force =     2.00002269    0.02964608   -1.72503711
     atom   36 type  1   force =     0.06889184   -2.15914002   -0.12371352
     atom   37 type  1   force =     1.48120385    0.91503659    0.82140729
     atom   38 type  1   force =     0.70407460    0.28174465   -1.43001444
     atom   39 type  4   force =    -6.44664698    3.19762990    1.40598894
     atom   40 type  4   force =     5.12564565   -0.51991634    6.04223787
     The core correction contribution to forces
     atom    1 type  2   force =    -0.00028719   -0.00075349   -0.00037498
     atom    2 type  2   force =     0.01050580    0.00711987   -0.00006802
     atom    3 type  1   force =     0.00000000    0.00000000    0.00000000
     atom    4 type  1   force =     0.00000000    0.00000000    0.00000000
     atom    5 type  3   force =    -0.00343441   -0.00076553    0.00121206
     atom    6 type  1   force =     0.00000000    0.00000000    0.00000000
     atom    7 type  1   force =     0.00000000    0.00000000    0.00000000
     atom    8 type  1   force =     0.00000000    0.00000000    0.00000000
     atom    9 type  4   force =     0.01823020    0.00302426   -0.00338480
     atom   10 type  4   force =    -0.01404602   -0.00483818   -0.01200375
     atom   11 type  2   force =     0.00028539   -0.00075313    0.00037369
     atom   12 type  2   force =    -0.01050463    0.00712037    0.00006929
     atom   13 type  1   force =     0.00000000    0.00000000    0.00000000
     atom   14 type  1   force =     0.00000000    0.00000000    0.00000000
     atom   15 type  3   force =     0.00343441   -0.00076538   -0.00121227
     atom   16 type  1   force =     0.00000000    0.00000000    0.00000000
     atom   17 type  1   force =     0.00000000    0.00000000    0.00000000
     atom   18 type  1   force =     0.00000000    0.00000000    0.00000000
     atom   19 type  4   force =    -0.01822989    0.00302412    0.00338467
     atom   20 type  4   force =     0.01404615   -0.00483822    0.01200359
     atom   21 type  2   force =     0.00028719    0.00075349    0.00037498
     atom   22 type  2   force =    -0.01050580   -0.00711987    0.00006802
     atom   23 type  1   force =     0.00000000    0.00000000    0.00000000
     atom   24 type  1   force =     0.00000000    0.00000000    0.00000000
     atom   25 type  3   force =     0.00343441    0.00076553   -0.00121206
     atom   26 type  1   force =     0.00000000    0.00000000    0.00000000
     atom   27 type  1   force =     0.00000000    0.00000000    0.00000000
     atom   28 type  1   force =     0.00000000    0.00000000    0.00000000
     atom   29 type  4   force =    -0.01823020   -0.00302426    0.00338480
     atom   30 type  4   force =     0.01404602    0.00483818    0.01200375
     atom   31 type  2   force =    -0.00028539    0.00075313   -0.00037369
     atom   32 type  2   force =     0.01050463   -0.00712037   -0.00006929
     atom   33 type  1   force =     0.00000000    0.00000000    0.00000000
     atom   34 type  1   force =     0.00000000    0.00000000    0.00000000
     atom   35 type  3   force =    -0.00343441    0.00076538    0.00121227
     atom   36 type  1   force =     0.00000000    0.00000000    0.00000000
     atom   37 type  1   force =     0.00000000    0.00000000    0.00000000
     atom   38 type  1   force =     0.00000000    0.00000000    0.00000000
     atom   39 type  4   force =     0.01822989   -0.00302412   -0.00338467
     atom   40 type  4   force =    -0.01404615    0.00483822   -0.01200359
     The Hubbard contrib.    to forces
     atom    1 type  2   force =     0.00000000    0.00000000    0.00000000
     atom    2 type  2   force =     0.00000000    0.00000000    0.00000000
     atom    3 type  1   force =     0.00000000    0.00000000    0.00000000
     atom    4 type  1   force =     0.00000000    0.00000000    0.00000000
     atom    5 type  3   force =     0.00000000    0.00000000    0.00000000
     atom    6 type  1   force =     0.00000000    0.00000000    0.00000000
     atom    7 type  1   force =     0.00000000    0.00000000    0.00000000
     atom    8 type  1   force =     0.00000000    0.00000000    0.00000000
     atom    9 type  4   force =     0.00000000    0.00000000    0.00000000
     atom   10 type  4   force =     0.00000000    0.00000000    0.00000000
     atom   11 type  2   force =     0.00000000    0.00000000    0.00000000
     atom   12 type  2   force =     0.00000000    0.00000000    0.00000000
     atom   13 type  1   force =     0.00000000    0.00000000    0.00000000
     atom   14 type  1   force =     0.00000000    0.00000000    0.00000000
     atom   15 type  3   force =     0.00000000    0.00000000    0.00000000
     atom   16 type  1   force =     0.00000000    0.00000000    0.00000000
     atom   17 type  1   force =     0.00000000    0.00000000    0.00000000
     atom   18 type  1   force =     0.00000000    0.00000000    0.00000000
     atom   19 type  4   force =     0.00000000    0.00000000    0.00000000
     atom   20 type  4   force =     0.00000000    0.00000000    0.00000000
     atom   21 type  2   force =     0.00000000    0.00000000    0.00000000
     atom   22 type  2   force =     0.00000000    0.00000000    0.00000000
     atom   23 type  1   force =     0.00000000    0.00000000    0.00000000
     atom   24 type  1   force =     0.00000000    0.00000000    0.00000000
     atom   25 type  3   force =     0.00000000    0.00000000    0.00000000
     atom   26 type  1   force =     0.00000000    0.00000000    0.00000000
     atom   27 type  1   force =     0.00000000    0.00000000    0.00000000
     atom   28 type  1   force =     0.00000000    0.00000000    0.00000000
     atom   29 type  4   force =     0.00000000    0.00000000    0.00000000
     atom   30 type  4   force =     0.00000000    0.00000000    0.00000000
     atom   31 type  2   force =     0.00000000    0.00000000    0.00000000
     atom   32 type  2   force =     0.00000000    0.00000000    0.00000000
     atom   33 type  1   force =     0.00000000    0.00000000    0.00000000
     atom   34 type  1   force =     0.00000000    0.00000000    0.00000000
     atom   35 type  3   force =     0.00000000    0.00000000    0.00000000
     atom   36 type  1   force =     0.00000000    0.00000000    0.00000000
     atom   37 type  1   force =     0.00000000    0.00000000    0.00000000
     atom   38 type  1   force =     0.00000000    0.00000000    0.00000000
     atom   39 type  4   force =     0.00000000    0.00000000    0.00000000
     atom   40 type  4   force =     0.00000000    0.00000000    0.00000000
     The SCF correction term to forces
     atom    1 type  2   force =    -0.00000223   -0.00000034    0.00000122
     atom    2 type  2   force =     0.00000064   -0.00000019   -0.00000115
     atom    3 type  1   force =     0.00000022   -0.00000049   -0.00000020
     atom    4 type  1   force =    -0.00000030    0.00000011   -0.00000047
     atom    5 type  3   force =     0.00000200    0.00000076   -0.00000052
     atom    6 type  1   force =     0.00000015    0.00000013   -0.00000001
     atom    7 type  1   force =     0.00000017    0.00000003    0.00000006
     atom    8 type  1   force =     0.00000004    0.00000004    0.00000017
     atom    9 type  4   force =    -0.00000394   -0.00000079    0.00000102
     atom   10 type  4   force =     0.00000191    0.00000052    0.00000255
     atom   11 type  2   force =     0.00000225   -0.00000044   -0.00000130
     atom   12 type  2   force =    -0.00000000   -0.00000037    0.00000007
     atom   13 type  1   force =    -0.00000022   -0.00000079    0.00000012
     atom   14 type  1   force =     0.00000047    0.00000014    0.00000051
     atom   15 type  3   force =    -0.00000279    0.00000117    0.00000033
     atom   16 type  1   force =    -0.00000015    0.00000018   -0.00000003
     atom   17 type  1   force =    -0.00000024    0.00000002   -0.00000009
     atom   18 type  1   force =    -0.00000010    0.00000003   -0.00000010
     atom   19 type  4   force =     0.00000157   -0.00000081   -0.00000047
     atom   20 type  4   force =    -0.00000032   -0.00000014   -0.00000076
     atom   21 type  2   force =     0.00000223    0.00000034   -0.00000122
     atom   22 type  2   force =    -0.00000064    0.00000019    0.00000115
     atom   23 type  1   force =    -0.00000022    0.00000049    0.00000020
     atom   24 type  1   force =     0.00000030   -0.00000011    0.00000047
     atom   25 type  3   force =    -0.00000200   -0.00000076    0.00000052
     atom   26 type  1   force =    -0.00000015   -0.00000013    0.00000001
     atom   27 type  1   force =    -0.00000017   -0.00000003   -0.00000006
     atom   28 type  1   force =    -0.00000004   -0.00000004   -0.00000017
     atom   29 type  4   force =     0.00000394    0.00000079   -0.00000102
     atom   30 type  4   force =    -0.00000191   -0.00000052   -0.00000255
     atom   31 type  2   force =    -0.00000225    0.00000044    0.00000130
     atom   32 type  2   force =     0.00000000    0.00000037   -0.00000007
     atom   33 type  1   force =     0.00000022    0.00000079   -0.00000012
     atom   34 type  1   force =    -0.00000047   -0.00000014   -0.00000051
     atom   35 type  3   force =     0.00000279   -0.00000117   -0.00000033
     atom   36 type  1   force =     0.00000015   -0.00000018    0.00000003
     atom   37 type  1   force =     0.00000024   -0.00000002    0.00000009
     atom   38 type  1   force =     0.00000010   -0.00000003    0.00000010
     atom   39 type  4   force =    -0.00000157    0.00000081    0.00000047
     atom   40 type  4   force =     0.00000032    0.00000014    0.00000076

     XDM contribution to forces:
     atom    1 type  2   force =     0.00030790   -0.00017531   -0.00043630
     atom    2 type  2   force =     0.00021019    0.00002386    0.00047617
     atom    3 type  1   force =    -0.00000508    0.00018471    0.00007424
     atom    4 type  1   force =     0.00014591   -0.00006167    0.00018376
     atom    5 type  3   force =    -0.00033983   -0.00046889    0.00004079
     atom    6 type  1   force =    -0.00009509   -0.00012118    0.00004376
     atom    7 type  1   force =    -0.00015496   -0.00005077    0.00001212
     atom    8 type  1   force =    -0.00015024   -0.00010619   -0.00002031
     atom    9 type  4   force =     0.00048273   -0.00025939   -0.00012580
     atom   10 type  4   force =    -0.00015853   -0.00044531   -0.00012821
     atom   11 type  2   force =    -0.00030791   -0.00017532    0.00043630
     atom   12 type  2   force =    -0.00021019    0.00002384   -0.00047617
     atom   13 type  1   force =     0.00000508    0.00018471   -0.00007424
     atom   14 type  1   force =    -0.00014591   -0.00006168   -0.00018376
     atom   15 type  3   force =     0.00033983   -0.00046889   -0.00004078
     atom   16 type  1   force =     0.00009508   -0.00012118   -0.00004376
     atom   17 type  1   force =     0.00015496   -0.00005077   -0.00001212
     atom   18 type  1   force =     0.00015024   -0.00010619    0.00002031
     atom   19 type  4   force =    -0.00048273   -0.00025941    0.00012581
     atom   20 type  4   force =     0.00015853   -0.00044532    0.00012821
     atom   21 type  2   force =    -0.00030790    0.00017531    0.00043630
     atom   22 type  2   force =    -0.00021019   -0.00002386   -0.00047617
     atom   23 type  1   force =     0.00000508   -0.00018471   -0.00007424
     atom   24 type  1   force =    -0.00014591    0.00006167   -0.00018376
     atom   25 type  3   force =     0.00033983    0.00046889   -0.00004079
     atom   26 type  1   force =     0.00009509    0.00012118   -0.00004376
     atom   27 type  1   force =     0.00015496    0.00005077   -0.00001212
     atom   28 type  1   force =     0.00015024    0.00010619    0.00002031
     atom   29 type  4   force =    -0.00048273    0.00025939    0.00012580
     atom   30 type  4   force =     0.00015853    0.00044531    0.00012821
     atom   31 type  2   force =     0.00030791    0.00017532   -0.00043630
     atom   32 type  2   force =     0.00021019   -0.00002384    0.00047617
     atom   33 type  1   force =    -0.00000508   -0.00018471    0.00007424
     atom   34 type  1   force =     0.00014591    0.00006168    0.00018376
     atom   35 type  3   force =    -0.00033983    0.00046889    0.00004078
     atom   36 type  1   force =    -0.00009508    0.00012118    0.00004376
     atom   37 type  1   force =    -0.00015496    0.00005077    0.00001212
     atom   38 type  1   force =    -0.00015024    0.00010619   -0.00002031
     atom   39 type  4   force =     0.00048273    0.00025941   -0.00012581
     atom   40 type  4   force =    -0.00015853    0.00044532   -0.00012821

     Total force =     0.000948     Total SCF correction =     0.000011

     Total XDM Force =     0.002581


     entering subroutine stress ...

          total   stress  (Ry/bohr**3)                   (kbar)     P=   -0.92
  -0.00000522  -0.00000001   0.00000026         -0.77     -0.00      0.04
  -0.00000001  -0.00000631  -0.00000000         -0.00     -0.93     -0.00
   0.00000026  -0.00000000  -0.00000716          0.04     -0.00     -1.05

     kinetic stress (kbar)  11958.92      0.00   -236.27
                                0.00  12494.94     -0.00
                             -236.27     -0.00  12528.60

     local   stress (kbar) -17704.87      0.01    836.07
                                0.01  -2637.81      0.01
                              836.07      0.01 -11592.28

     nonloc. stress (kbar)   2959.92     -0.00     -6.97
                               -0.00   2959.22     -0.00
                               -6.97     -0.00   2999.84

     hartree stress (kbar)   6561.12     -0.00   -489.52
                               -0.00   1628.62     -0.00
                             -489.52     -0.00   4422.49

     exc-cor stress (kbar)  -2087.91     -0.00      3.35
                               -0.00  -2126.09     -0.00
                                3.35     -0.00  -2096.65

     corecor stress (kbar)   -719.24      0.00     -0.52
                                0.00   -715.50      0.00
                               -0.52      0.00   -722.15

     ewald   stress (kbar)   -950.27     -0.01   -105.78
                               -0.01 -11584.08     -0.00
                             -105.78     -0.00  -5522.39

     hubbard stress (kbar)      0.00      0.00      0.00
                                0.00      0.00      0.00
                                0.00      0.00      0.00

     london  stress (kbar)      0.00      0.00      0.00
                                0.00      0.00      0.00
                                0.00      0.00      0.00

     XDM     stress (kbar)    -18.45     -0.00     -0.31
                               -0.00    -20.23     -0.00
                               -0.31     -0.00    -18.52

     dft-nl  stress (kbar)      0.00      0.00      0.00
                                0.00      0.00      0.00
                                0.00      0.00      0.00

     TS-vdW  stress (kbar)      0.00      0.00      0.00
                                0.00      0.00      0.00
                                0.00      0.00      0.00



     Writing output data file fullQE.save
 
     init_run     :     10.28s CPU     11.07s WALL (       2 calls)
     electrons    :   4867.81s CPU   5615.76s WALL (      53 calls)
     update_pot   :    231.73s CPU    237.44s WALL (      51 calls)
     forces       :    139.66s CPU    146.23s WALL (      53 calls)
     stress       :    349.65s CPU    360.77s WALL (      53 calls)

     Called by init_run:
     wfcinit      :      3.78s CPU      4.34s WALL (       2 calls)
     wfcinit:atom :      0.02s CPU      0.04s WALL (      26 calls)
     wfcinit:wfcr :      3.63s CPU      4.09s WALL (      26 calls)
     potinit      :      2.60s CPU      2.68s WALL (       2 calls)

     Called by electrons:
     c_bands      :   3107.98s CPU   3645.04s WALL (     733 calls)
     sum_band     :   1467.91s CPU   1629.88s WALL (     733 calls)
     v_of_rho     :     49.56s CPU     60.33s WALL (     763 calls)
     v_h          :      3.16s CPU      4.51s WALL (     763 calls)
     v_xc         :     52.93s CPU     63.72s WALL (     869 calls)
     newd         :     60.56s CPU     81.35s WALL (     763 calls)
     PAW_pot      :    120.38s CPU    124.93s WALL (     814 calls)
     mix_rho      :     13.03s CPU     19.51s WALL (     733 calls)

     Called by c_bands:
     init_us_2    :     31.15s CPU     37.66s WALL (   21125 calls)
     cegterg      :   3025.49s CPU   3523.43s WALL (    9529 calls)

     Called by sum_band:
     sum_band:bec :      0.86s CPU      0.84s WALL (   10192 calls)
     addusdens    :     79.16s CPU    107.07s WALL (     733 calls)

     Called by *egterg:
     h_psi        :   2095.34s CPU   2291.90s WALL (   39334 calls)
     s_psi        :    123.47s CPU    131.59s WALL (   39334 calls)
     g_psi        :      9.92s CPU      9.94s WALL (   29779 calls)
     cdiaghg      :    428.12s CPU    607.77s WALL (   38346 calls)
     cegterg:over :    132.84s CPU    144.22s WALL (   29779 calls)
     cegterg:upda :    111.04s CPU    138.39s WALL (   29779 calls)
     cegterg:last :     51.70s CPU     59.64s WALL (   10831 calls)
     cdiaghg:chol :     24.10s CPU     24.20s WALL (   38346 calls)
     cdiaghg:inve :      5.08s CPU      5.27s WALL (   38346 calls)
     cdiaghg:para :    116.67s CPU    267.24s WALL (   76692 calls)

     Called by h_psi:
     h_psi:pot    :   2078.13s CPU   2274.63s WALL (   39334 calls)
     h_psi:calbec :    116.45s CPU    122.29s WALL (   39334 calls)
     vloc_psi     :   1841.26s CPU   2024.31s WALL (   39334 calls)
     add_vuspsi   :    120.23s CPU    127.80s WALL (   39334 calls)

     General routines
     calbec       :    169.94s CPU    178.20s WALL (   52971 calls)
     fft          :     87.00s CPU    104.99s WALL (   16997 calls)
     ffts         :      1.72s CPU      2.03s WALL (    2229 calls)
     fftw         :   2708.22s CPU   2995.71s WALL ( 5783412 calls)
     interpolate  :     10.02s CPU     14.58s WALL (    2229 calls)
     davcio       :      1.26s CPU     22.75s WALL (   39888 calls)
 
     Parallel routines
     fft_scatter  :    562.05s CPU    621.97s WALL ( 5802638 calls)

     PAW routines
     PAW_pot      :    120.38s CPU    124.93s WALL (     814 calls)
     PAW_symme    :      0.08s CPU      0.09s WALL (    1547 calls)
 
     PWSCF        :     1h33m CPU        1h46m WALL

 
   This run was terminated on:  17:15:24  23Jul2018            

=------------------------------------------------------------------------------=
   JOB DONE.
=------------------------------------------------------------------------------=
